V -t * -v 1.0a5 -a 0
W -t * -x 500 -y 500
A -t * -n 1 -p 0 -o 0x7fffffff -c 30 -a 1
A -t * -h 1 -m 1073741823 -s 0
n -t 10.000000 -s 0 -x 5.000000 -y 2.000000 -U 0.683941 -V 0.729537 -T 21.931712
+ -t 10.000000000 -s 0 -d -1 -p tcp -e 40 -c 2 -a 0 -i 0 -k AGT 
- -t 10.000000000 -s 0 -d -1 -p tcp -e 40 -c 2 -a 0 -i 0 -k AGT
h -t 10.000000000 -s 0 -d -1 -p tcp -e 40 -c 2 -a 0 -i 0 -k AGT
+ -t 10.000000000 -s 0 -d -1 -p AODV -e 48 -c 2 -a 0 -i 0 -k RTR 
- -t 10.000000000 -s 0 -d -1 -p AODV -e 48 -c 2 -a 0 -i 0 -k RTR
h -t 10.000000000 -s 0 -d -1 -p AODV -e 48 -c 2 -a 0 -i 0 -k RTR
r -t 10.000988018 -s 49 -d -1 -p AODV -e 48 -c 2 -a 0 -i 0 -k RTR
r -t 10.000988018 -s 48 -d -1 -p AODV -e 48 -c 2 -a 0 -i 0 -k RTR
r -t 10.000988018 -s 47 -d -1 -p AODV -e 48 -c 2 -a 0 -i 0 -k RTR
r -t 10.000988018 -s 46 -d -1 -p AODV -e 48 -c 2 -a 0 -i 0 -k RTR
r -t 10.000988018 -s 45 -d -1 -p AODV -e 48 -c 2 -a 0 -i 0 -k RTR
r -t 10.000988018 -s 44 -d -1 -p AODV -e 48 -c 2 -a 0 -i 0 -k RTR
r -t 10.000988018 -s 43 -d -1 -p AODV -e 48 -c 2 -a 0 -i 0 -k RTR
r -t 10.000988018 -s 42 -d -1 -p AODV -e 48 -c 2 -a 0 -i 0 -k RTR
r -t 10.000988018 -s 41 -d -1 -p AODV -e 48 -c 2 -a 0 -i 0 -k RTR
r -t 10.000988018 -s 40 -d -1 -p AODV -e 48 -c 2 -a 0 -i 0 -k RTR
r -t 10.000988018 -s 39 -d -1 -p AODV -e 48 -c 2 -a 0 -i 0 -k RTR
r -t 10.000988018 -s 38 -d -1 -p AODV -e 48 -c 2 -a 0 -i 0 -k RTR
r -t 10.000988018 -s 37 -d -1 -p AODV -e 48 -c 2 -a 0 -i 0 -k RTR
r -t 10.000988018 -s 36 -d -1 -p AODV -e 48 -c 2 -a 0 -i 0 -k RTR
r -t 10.000988018 -s 35 -d -1 -p AODV -e 48 -c 2 -a 0 -i 0 -k RTR
r -t 10.000988018 -s 34 -d -1 -p AODV -e 48 -c 2 -a 0 -i 0 -k RTR
r -t 10.000988018 -s 33 -d -1 -p AODV -e 48 -c 2 -a 0 -i 0 -k RTR
r -t 10.000988018 -s 32 -d -1 -p AODV -e 48 -c 2 -a 0 -i 0 -k RTR
r -t 10.000988018 -s 31 -d -1 -p AODV -e 48 -c 2 -a 0 -i 0 -k RTR
r -t 10.000988018 -s 30 -d -1 -p AODV -e 48 -c 2 -a 0 -i 0 -k RTR
r -t 10.000988018 -s 29 -d -1 -p AODV -e 48 -c 2 -a 0 -i 0 -k RTR
r -t 10.000988018 -s 28 -d -1 -p AODV -e 48 -c 2 -a 0 -i 0 -k RTR
r -t 10.000988018 -s 27 -d -1 -p AODV -e 48 -c 2 -a 0 -i 0 -k RTR
r -t 10.000988018 -s 26 -d -1 -p AODV -e 48 -c 2 -a 0 -i 0 -k RTR
r -t 10.000988018 -s 25 -d -1 -p AODV -e 48 -c 2 -a 0 -i 0 -k RTR
r -t 10.000988018 -s 24 -d -1 -p AODV -e 48 -c 2 -a 0 -i 0 -k RTR
r -t 10.000988018 -s 23 -d -1 -p AODV -e 48 -c 2 -a 0 -i 0 -k RTR
r -t 10.000988018 -s 22 -d -1 -p AODV -e 48 -c 2 -a 0 -i 0 -k RTR
r -t 10.000988018 -s 21 -d -1 -p AODV -e 48 -c 2 -a 0 -i 0 -k RTR
r -t 10.000988018 -s 20 -d -1 -p AODV -e 48 -c 2 -a 0 -i 0 -k RTR
r -t 10.000988018 -s 19 -d -1 -p AODV -e 48 -c 2 -a 0 -i 0 -k RTR
r -t 10.000988018 -s 18 -d -1 -p AODV -e 48 -c 2 -a 0 -i 0 -k RTR
r -t 10.000988018 -s 17 -d -1 -p AODV -e 48 -c 2 -a 0 -i 0 -k RTR
r -t 10.000988018 -s 16 -d -1 -p AODV -e 48 -c 2 -a 0 -i 0 -k RTR
r -t 10.000988018 -s 15 -d -1 -p AODV -e 48 -c 2 -a 0 -i 0 -k RTR
r -t 10.000988018 -s 14 -d -1 -p AODV -e 48 -c 2 -a 0 -i 0 -k RTR
r -t 10.000988018 -s 13 -d -1 -p AODV -e 48 -c 2 -a 0 -i 0 -k RTR
r -t 10.000988018 -s 12 -d -1 -p AODV -e 48 -c 2 -a 0 -i 0 -k RTR
r -t 10.000988018 -s 11 -d -1 -p AODV -e 48 -c 2 -a 0 -i 0 -k RTR
r -t 10.000988018 -s 10 -d -1 -p AODV -e 48 -c 2 -a 0 -i 0 -k RTR
r -t 10.000988018 -s 9 -d -1 -p AODV -e 48 -c 2 -a 0 -i 0 -k RTR
r -t 10.000988018 -s 8 -d -1 -p AODV -e 48 -c 2 -a 0 -i 0 -k RTR
r -t 10.000988018 -s 7 -d -1 -p AODV -e 48 -c 2 -a 0 -i 0 -k RTR
r -t 10.000988018 -s 6 -d -1 -p AODV -e 48 -c 2 -a 0 -i 0 -k RTR
r -t 10.000988018 -s 5 -d -1 -p AODV -e 48 -c 2 -a 0 -i 0 -k RTR
r -t 10.000988018 -s 4 -d -1 -p AODV -e 48 -c 2 -a 0 -i 0 -k RTR
r -t 10.000988121 -s 2 -d -1 -p AODV -e 48 -c 2 -a 0 -i 0 -k RTR
r -t 10.000988538 -s 3 -d -1 -p AODV -e 48 -c 2 -a 0 -i 0 -k RTR
+ -t 10.001096101 -s 8 -d -1 -p AODV -e 48 -c 2 -a 0 -i 0 -k RTR 
- -t 10.001096101 -s 8 -d -1 -p AODV -e 48 -c 2 -a 0 -i 0 -k RTR
h -t 10.001096101 -s 8 -d -1 -p AODV -e 48 -c 2 -a 0 -i 0 -k RTR
+ -t 10.001415964 -s 39 -d -1 -p AODV -e 48 -c 2 -a 0 -i 0 -k RTR 
- -t 10.001415964 -s 39 -d -1 -p AODV -e 48 -c 2 -a 0 -i 0 -k RTR
h -t 10.001415964 -s 39 -d -1 -p AODV -e 48 -c 2 -a 0 -i 0 -k RTR
+ -t 10.001572044 -s 9 -d -1 -p AODV -e 48 -c 2 -a 0 -i 0 -k RTR 
- -t 10.001572044 -s 9 -d -1 -p AODV -e 48 -c 2 -a 0 -i 0 -k RTR
h -t 10.001572044 -s 9 -d -1 -p AODV -e 48 -c 2 -a 0 -i 0 -k RTR
+ -t 10.001869245 -s 49 -d -1 -p AODV -e 48 -c 2 -a 0 -i 0 -k RTR 
- -t 10.001869245 -s 49 -d -1 -p AODV -e 48 -c 2 -a 0 -i 0 -k RTR
h -t 10.001869245 -s 49 -d -1 -p AODV -e 48 -c 2 -a 0 -i 0 -k RTR
+ -t 10.001929406 -s 33 -d -1 -p AODV -e 48 -c 2 -a 0 -i 0 -k RTR 
- -t 10.001929406 -s 33 -d -1 -p AODV -e 48 -c 2 -a 0 -i 0 -k RTR
h -t 10.001929406 -s 33 -d -1 -p AODV -e 48 -c 2 -a 0 -i 0 -k RTR
r -t 10.002044101 -s 7 -d -1 -p AODV -e 48 -c 2 -a 0 -i 0 -k RTR
r -t 10.002044101 -s 6 -d -1 -p AODV -e 48 -c 2 -a 0 -i 0 -k RTR
r -t 10.002044101 -s 5 -d -1 -p AODV -e 48 -c 2 -a 0 -i 0 -k RTR
r -t 10.002044101 -s 4 -d -1 -p AODV -e 48 -c 2 -a 0 -i 0 -k RTR
r -t 10.002044101 -s 9 -d -1 -p AODV -e 48 -c 2 -a 0 -i 0 -k RTR
r -t 10.002044101 -s 10 -d -1 -p AODV -e 48 -c 2 -a 0 -i 0 -k RTR
r -t 10.002044101 -s 11 -d -1 -p AODV -e 48 -c 2 -a 0 -i 0 -k RTR
r -t 10.002044101 -s 12 -d -1 -p AODV -e 48 -c 2 -a 0 -i 0 -k RTR
r -t 10.002044101 -s 13 -d -1 -p AODV -e 48 -c 2 -a 0 -i 0 -k RTR
r -t 10.002044101 -s 14 -d -1 -p AODV -e 48 -c 2 -a 0 -i 0 -k RTR
r -t 10.002044101 -s 15 -d -1 -p AODV -e 48 -c 2 -a 0 -i 0 -k RTR
r -t 10.002044101 -s 16 -d -1 -p AODV -e 48 -c 2 -a 0 -i 0 -k RTR
r -t 10.002044101 -s 17 -d -1 -p AODV -e 48 -c 2 -a 0 -i 0 -k RTR
r -t 10.002044101 -s 18 -d -1 -p AODV -e 48 -c 2 -a 0 -i 0 -k RTR
r -t 10.002044101 -s 19 -d -1 -p AODV -e 48 -c 2 -a 0 -i 0 -k RTR
r -t 10.002044101 -s 20 -d -1 -p AODV -e 48 -c 2 -a 0 -i 0 -k RTR
r -t 10.002044101 -s 21 -d -1 -p AODV -e 48 -c 2 -a 0 -i 0 -k RTR
r -t 10.002044101 -s 22 -d -1 -p AODV -e 48 -c 2 -a 0 -i 0 -k RTR
r -t 10.002044101 -s 23 -d -1 -p AODV -e 48 -c 2 -a 0 -i 0 -k RTR
r -t 10.002044101 -s 24 -d -1 -p AODV -e 48 -c 2 -a 0 -i 0 -k RTR
r -t 10.002044101 -s 25 -d -1 -p AODV -e 48 -c 2 -a 0 -i 0 -k RTR
r -t 10.002044101 -s 26 -d -1 -p AODV -e 48 -c 2 -a 0 -i 0 -k RTR
r -t 10.002044101 -s 27 -d -1 -p AODV -e 48 -c 2 -a 0 -i 0 -k RTR
r -t 10.002044101 -s 28 -d -1 -p AODV -e 48 -c 2 -a 0 -i 0 -k RTR
r -t 10.002044101 -s 29 -d -1 -p AODV -e 48 -c 2 -a 0 -i 0 -k RTR
r -t 10.002044101 -s 30 -d -1 -p AODV -e 48 -c 2 -a 0 -i 0 -k RTR
r -t 10.002044101 -s 31 -d -1 -p AODV -e 48 -c 2 -a 0 -i 0 -k RTR
r -t 10.002044101 -s 32 -d -1 -p AODV -e 48 -c 2 -a 0 -i 0 -k RTR
r -t 10.002044101 -s 33 -d -1 -p AODV -e 48 -c 2 -a 0 -i 0 -k RTR
r -t 10.002044101 -s 34 -d -1 -p AODV -e 48 -c 2 -a 0 -i 0 -k RTR
r -t 10.002044101 -s 35 -d -1 -p AODV -e 48 -c 2 -a 0 -i 0 -k RTR
r -t 10.002044101 -s 36 -d -1 -p AODV -e 48 -c 2 -a 0 -i 0 -k RTR
r -t 10.002044101 -s 37 -d -1 -p AODV -e 48 -c 2 -a 0 -i 0 -k RTR
r -t 10.002044101 -s 38 -d -1 -p AODV -e 48 -c 2 -a 0 -i 0 -k RTR
r -t 10.002044101 -s 39 -d -1 -p AODV -e 48 -c 2 -a 0 -i 0 -k RTR
r -t 10.002044101 -s 40 -d -1 -p AODV -e 48 -c 2 -a 0 -i 0 -k RTR
r -t 10.002044101 -s 41 -d -1 -p AODV -e 48 -c 2 -a 0 -i 0 -k RTR
r -t 10.002044101 -s 42 -d -1 -p AODV -e 48 -c 2 -a 0 -i 0 -k RTR
r -t 10.002044101 -s 43 -d -1 -p AODV -e 48 -c 2 -a 0 -i 0 -k RTR
r -t 10.002044101 -s 44 -d -1 -p AODV -e 48 -c 2 -a 0 -i 0 -k RTR
r -t 10.002044101 -s 45 -d -1 -p AODV -e 48 -c 2 -a 0 -i 0 -k RTR
r -t 10.002044101 -s 46 -d -1 -p AODV -e 48 -c 2 -a 0 -i 0 -k RTR
r -t 10.002044101 -s 47 -d -1 -p AODV -e 48 -c 2 -a 0 -i 0 -k RTR
r -t 10.002044101 -s 48 -d -1 -p AODV -e 48 -c 2 -a 0 -i 0 -k RTR
r -t 10.002044101 -s 49 -d -1 -p AODV -e 48 -c 2 -a 0 -i 0 -k RTR
r -t 10.002044119 -s 0 -d -1 -p AODV -e 48 -c 2 -a 0 -i 0 -k RTR
r -t 10.002044236 -s 2 -d -1 -p AODV -e 48 -c 2 -a 0 -i 0 -k RTR
r -t 10.002044655 -s 3 -d -1 -p AODV -e 48 -c 2 -a 0 -i 0 -k RTR
+ -t 10.002080003 -s 16 -d -1 -p AODV -e 48 -c 2 -a 0 -i 0 -k RTR 
- -t 10.002080003 -s 16 -d -1 -p AODV -e 48 -c 2 -a 0 -i 0 -k RTR
h -t 10.002080003 -s 16 -d -1 -p AODV -e 48 -c 2 -a 0 -i 0 -k RTR
+ -t 10.002108331 -s 10 -d -1 -p AODV -e 48 -c 2 -a 0 -i 0 -k RTR 
- -t 10.002108331 -s 10 -d -1 -p AODV -e 48 -c 2 -a 0 -i 0 -k RTR
h -t 10.002108331 -s 10 -d -1 -p AODV -e 48 -c 2 -a 0 -i 0 -k RTR
+ -t 10.002126100 -s 37 -d -1 -p AODV -e 48 -c 2 -a 0 -i 0 -k RTR 
- -t 10.002126100 -s 37 -d -1 -p AODV -e 48 -c 2 -a 0 -i 0 -k RTR
h -t 10.002126100 -s 37 -d -1 -p AODV -e 48 -c 2 -a 0 -i 0 -k RTR
+ -t 10.002219053 -s 5 -d -1 -p AODV -e 48 -c 2 -a 0 -i 0 -k RTR 
- -t 10.002219053 -s 5 -d -1 -p AODV -e 48 -c 2 -a 0 -i 0 -k RTR
h -t 10.002219053 -s 5 -d -1 -p AODV -e 48 -c 2 -a 0 -i 0 -k RTR
+ -t 10.002629472 -s 40 -d -1 -p AODV -e 48 -c 2 -a 0 -i 0 -k RTR 
- -t 10.002629472 -s 40 -d -1 -p AODV -e 48 -c 2 -a 0 -i 0 -k RTR
h -t 10.002629472 -s 40 -d -1 -p AODV -e 48 -c 2 -a 0 -i 0 -k RTR
+ -t 10.002736070 -s 34 -d -1 -p AODV -e 48 -c 2 -a 0 -i 0 -k RTR 
- -t 10.002736070 -s 34 -d -1 -p AODV -e 48 -c 2 -a 0 -i 0 -k RTR
h -t 10.002736070 -s 34 -d -1 -p AODV -e 48 -c 2 -a 0 -i 0 -k RTR
+ -t 10.002861670 -s 14 -d -1 -p AODV -e 48 -c 2 -a 0 -i 0 -k RTR 
- -t 10.002861670 -s 14 -d -1 -p AODV -e 48 -c 2 -a 0 -i 0 -k RTR
h -t 10.002861670 -s 14 -d -1 -p AODV -e 48 -c 2 -a 0 -i 0 -k RTR
r -t 10.003056331 -s 9 -d -1 -p AODV -e 48 -c 2 -a 0 -i 0 -k RTR
r -t 10.003056331 -s 8 -d -1 -p AODV -e 48 -c 2 -a 0 -i 0 -k RTR
r -t 10.003056331 -s 7 -d -1 -p AODV -e 48 -c 2 -a 0 -i 0 -k RTR
r -t 10.003056331 -s 6 -d -1 -p AODV -e 48 -c 2 -a 0 -i 0 -k RTR
r -t 10.003056331 -s 5 -d -1 -p AODV -e 48 -c 2 -a 0 -i 0 -k RTR
r -t 10.003056331 -s 4 -d -1 -p AODV -e 48 -c 2 -a 0 -i 0 -k RTR
r -t 10.003056331 -s 11 -d -1 -p AODV -e 48 -c 2 -a 0 -i 0 -k RTR
r -t 10.003056331 -s 12 -d -1 -p AODV -e 48 -c 2 -a 0 -i 0 -k RTR
r -t 10.003056331 -s 13 -d -1 -p AODV -e 48 -c 2 -a 0 -i 0 -k RTR
r -t 10.003056331 -s 14 -d -1 -p AODV -e 48 -c 2 -a 0 -i 0 -k RTR
r -t 10.003056331 -s 15 -d -1 -p AODV -e 48 -c 2 -a 0 -i 0 -k RTR
r -t 10.003056331 -s 16 -d -1 -p AODV -e 48 -c 2 -a 0 -i 0 -k RTR
r -t 10.003056331 -s 17 -d -1 -p AODV -e 48 -c 2 -a 0 -i 0 -k RTR
r -t 10.003056331 -s 18 -d -1 -p AODV -e 48 -c 2 -a 0 -i 0 -k RTR
r -t 10.003056331 -s 19 -d -1 -p AODV -e 48 -c 2 -a 0 -i 0 -k RTR
r -t 10.003056331 -s 20 -d -1 -p AODV -e 48 -c 2 -a 0 -i 0 -k RTR
r -t 10.003056331 -s 21 -d -1 -p AODV -e 48 -c 2 -a 0 -i 0 -k RTR
r -t 10.003056331 -s 22 -d -1 -p AODV -e 48 -c 2 -a 0 -i 0 -k RTR
r -t 10.003056331 -s 23 -d -1 -p AODV -e 48 -c 2 -a 0 -i 0 -k RTR
r -t 10.003056331 -s 24 -d -1 -p AODV -e 48 -c 2 -a 0 -i 0 -k RTR
r -t 10.003056331 -s 25 -d -1 -p AODV -e 48 -c 2 -a 0 -i 0 -k RTR
r -t 10.003056331 -s 26 -d -1 -p AODV -e 48 -c 2 -a 0 -i 0 -k RTR
r -t 10.003056331 -s 27 -d -1 -p AODV -e 48 -c 2 -a 0 -i 0 -k RTR
r -t 10.003056331 -s 28 -d -1 -p AODV -e 48 -c 2 -a 0 -i 0 -k RTR
r -t 10.003056331 -s 29 -d -1 -p AODV -e 48 -c 2 -a 0 -i 0 -k RTR
r -t 10.003056331 -s 30 -d -1 -p AODV -e 48 -c 2 -a 0 -i 0 -k RTR
r -t 10.003056331 -s 31 -d -1 -p AODV -e 48 -c 2 -a 0 -i 0 -k RTR
r -t 10.003056331 -s 32 -d -1 -p AODV -e 48 -c 2 -a 0 -i 0 -k RTR
r -t 10.003056331 -s 33 -d -1 -p AODV -e 48 -c 2 -a 0 -i 0 -k RTR
r -t 10.003056331 -s 34 -d -1 -p AODV -e 48 -c 2 -a 0 -i 0 -k RTR
r -t 10.003056331 -s 35 -d -1 -p AODV -e 48 -c 2 -a 0 -i 0 -k RTR
r -t 10.003056331 -s 36 -d -1 -p AODV -e 48 -c 2 -a 0 -i 0 -k RTR
r -t 10.003056331 -s 37 -d -1 -p AODV -e 48 -c 2 -a 0 -i 0 -k RTR
r -t 10.003056331 -s 38 -d -1 -p AODV -e 48 -c 2 -a 0 -i 0 -k RTR
r -t 10.003056331 -s 39 -d -1 -p AODV -e 48 -c 2 -a 0 -i 0 -k RTR
r -t 10.003056331 -s 40 -d -1 -p AODV -e 48 -c 2 -a 0 -i 0 -k RTR
r -t 10.003056331 -s 41 -d -1 -p AODV -e 48 -c 2 -a 0 -i 0 -k RTR
r -t 10.003056331 -s 42 -d -1 -p AODV -e 48 -c 2 -a 0 -i 0 -k RTR
r -t 10.003056331 -s 43 -d -1 -p AODV -e 48 -c 2 -a 0 -i 0 -k RTR
r -t 10.003056331 -s 44 -d -1 -p AODV -e 48 -c 2 -a 0 -i 0 -k RTR
r -t 10.003056331 -s 45 -d -1 -p AODV -e 48 -c 2 -a 0 -i 0 -k RTR
r -t 10.003056331 -s 46 -d -1 -p AODV -e 48 -c 2 -a 0 -i 0 -k RTR
r -t 10.003056331 -s 47 -d -1 -p AODV -e 48 -c 2 -a 0 -i 0 -k RTR
r -t 10.003056331 -s 48 -d -1 -p AODV -e 48 -c 2 -a 0 -i 0 -k RTR
r -t 10.003056331 -s 49 -d -1 -p AODV -e 48 -c 2 -a 0 -i 0 -k RTR
r -t 10.003056349 -s 0 -d -1 -p AODV -e 48 -c 2 -a 0 -i 0 -k RTR
r -t 10.003056465 -s 2 -d -1 -p AODV -e 48 -c 2 -a 0 -i 0 -k RTR
r -t 10.003056885 -s 3 -d -1 -p AODV -e 48 -c 2 -a 0 -i 0 -k RTR
+ -t 10.003159613 -s 23 -d -1 -p AODV -e 48 -c 2 -a 0 -i 0 -k RTR 
- -t 10.003159613 -s 23 -d -1 -p AODV -e 48 -c 2 -a 0 -i 0 -k RTR
h -t 10.003159613 -s 23 -d -1 -p AODV -e 48 -c 2 -a 0 -i 0 -k RTR
+ -t 10.003334035 -s 44 -d -1 -p AODV -e 48 -c 2 -a 0 -i 0 -k RTR 
- -t 10.003334035 -s 44 -d -1 -p AODV -e 48 -c 2 -a 0 -i 0 -k RTR
h -t 10.003334035 -s 44 -d -1 -p AODV -e 48 -c 2 -a 0 -i 0 -k RTR
+ -t 10.003400274 -s 22 -d -1 -p AODV -e 48 -c 2 -a 0 -i 0 -k RTR 
- -t 10.003400274 -s 22 -d -1 -p AODV -e 48 -c 2 -a 0 -i 0 -k RTR
h -t 10.003400274 -s 22 -d -1 -p AODV -e 48 -c 2 -a 0 -i 0 -k RTR
+ -t 10.003558058 -s 2 -d -1 -p AODV -e 48 -c 2 -a 0 -i 0 -k RTR 
- -t 10.003558058 -s 2 -d -1 -p AODV -e 48 -c 2 -a 0 -i 0 -k RTR
h -t 10.003558058 -s 2 -d -1 -p AODV -e 48 -c 2 -a 0 -i 0 -k RTR
+ -t 10.003568897 -s 30 -d -1 -p AODV -e 48 -c 2 -a 0 -i 0 -k RTR 
- -t 10.003568897 -s 30 -d -1 -p AODV -e 48 -c 2 -a 0 -i 0 -k RTR
h -t 10.003568897 -s 30 -d -1 -p AODV -e 48 -c 2 -a 0 -i 0 -k RTR
r -t 10.003974331 -s 33 -d -1 -p AODV -e 48 -c 2 -a 0 -i 0 -k RTR
r -t 10.003974331 -s 32 -d -1 -p AODV -e 48 -c 2 -a 0 -i 0 -k RTR
r -t 10.003974331 -s 31 -d -1 -p AODV -e 48 -c 2 -a 0 -i 0 -k RTR
r -t 10.003974331 -s 30 -d -1 -p AODV -e 48 -c 2 -a 0 -i 0 -k RTR
r -t 10.003974331 -s 29 -d -1 -p AODV -e 48 -c 2 -a 0 -i 0 -k RTR
r -t 10.003974331 -s 28 -d -1 -p AODV -e 48 -c 2 -a 0 -i 0 -k RTR
r -t 10.003974331 -s 27 -d -1 -p AODV -e 48 -c 2 -a 0 -i 0 -k RTR
r -t 10.003974331 -s 26 -d -1 -p AODV -e 48 -c 2 -a 0 -i 0 -k RTR
r -t 10.003974331 -s 25 -d -1 -p AODV -e 48 -c 2 -a 0 -i 0 -k RTR
r -t 10.003974331 -s 24 -d -1 -p AODV -e 48 -c 2 -a 0 -i 0 -k RTR
r -t 10.003974331 -s 23 -d -1 -p AODV -e 48 -c 2 -a 0 -i 0 -k RTR
r -t 10.003974331 -s 22 -d -1 -p AODV -e 48 -c 2 -a 0 -i 0 -k RTR
r -t 10.003974331 -s 21 -d -1 -p AODV -e 48 -c 2 -a 0 -i 0 -k RTR
r -t 10.003974331 -s 20 -d -1 -p AODV -e 48 -c 2 -a 0 -i 0 -k RTR
r -t 10.003974331 -s 19 -d -1 -p AODV -e 48 -c 2 -a 0 -i 0 -k RTR
r -t 10.003974331 -s 18 -d -1 -p AODV -e 48 -c 2 -a 0 -i 0 -k RTR
r -t 10.003974331 -s 17 -d -1 -p AODV -e 48 -c 2 -a 0 -i 0 -k RTR
r -t 10.003974331 -s 16 -d -1 -p AODV -e 48 -c 2 -a 0 -i 0 -k RTR
r -t 10.003974331 -s 15 -d -1 -p AODV -e 48 -c 2 -a 0 -i 0 -k RTR
r -t 10.003974331 -s 14 -d -1 -p AODV -e 48 -c 2 -a 0 -i 0 -k RTR
r -t 10.003974331 -s 13 -d -1 -p AODV -e 48 -c 2 -a 0 -i 0 -k RTR
r -t 10.003974331 -s 12 -d -1 -p AODV -e 48 -c 2 -a 0 -i 0 -k RTR
r -t 10.003974331 -s 11 -d -1 -p AODV -e 48 -c 2 -a 0 -i 0 -k RTR
r -t 10.003974331 -s 10 -d -1 -p AODV -e 48 -c 2 -a 0 -i 0 -k RTR
r -t 10.003974331 -s 9 -d -1 -p AODV -e 48 -c 2 -a 0 -i 0 -k RTR
r -t 10.003974331 -s 8 -d -1 -p AODV -e 48 -c 2 -a 0 -i 0 -k RTR
r -t 10.003974331 -s 7 -d -1 -p AODV -e 48 -c 2 -a 0 -i 0 -k RTR
r -t 10.003974331 -s 6 -d -1 -p AODV -e 48 -c 2 -a 0 -i 0 -k RTR
r -t 10.003974331 -s 5 -d -1 -p AODV -e 48 -c 2 -a 0 -i 0 -k RTR
r -t 10.003974331 -s 4 -d -1 -p AODV -e 48 -c 2 -a 0 -i 0 -k RTR
r -t 10.003974331 -s 35 -d -1 -p AODV -e 48 -c 2 -a 0 -i 0 -k RTR
r -t 10.003974331 -s 36 -d -1 -p AODV -e 48 -c 2 -a 0 -i 0 -k RTR
r -t 10.003974331 -s 37 -d -1 -p AODV -e 48 -c 2 -a 0 -i 0 -k RTR
r -t 10.003974331 -s 38 -d -1 -p AODV -e 48 -c 2 -a 0 -i 0 -k RTR
r -t 10.003974331 -s 39 -d -1 -p AODV -e 48 -c 2 -a 0 -i 0 -k RTR
r -t 10.003974331 -s 40 -d -1 -p AODV -e 48 -c 2 -a 0 -i 0 -k RTR
r -t 10.003974331 -s 41 -d -1 -p AODV -e 48 -c 2 -a 0 -i 0 -k RTR
r -t 10.003974331 -s 42 -d -1 -p AODV -e 48 -c 2 -a 0 -i 0 -k RTR
r -t 10.003974331 -s 43 -d -1 -p AODV -e 48 -c 2 -a 0 -i 0 -k RTR
r -t 10.003974331 -s 44 -d -1 -p AODV -e 48 -c 2 -a 0 -i 0 -k RTR
r -t 10.003974331 -s 45 -d -1 -p AODV -e 48 -c 2 -a 0 -i 0 -k RTR
r -t 10.003974331 -s 46 -d -1 -p AODV -e 48 -c 2 -a 0 -i 0 -k RTR
r -t 10.003974331 -s 47 -d -1 -p AODV -e 48 -c 2 -a 0 -i 0 -k RTR
r -t 10.003974331 -s 48 -d -1 -p AODV -e 48 -c 2 -a 0 -i 0 -k RTR
r -t 10.003974331 -s 49 -d -1 -p AODV -e 48 -c 2 -a 0 -i 0 -k RTR
r -t 10.003974349 -s 0 -d -1 -p AODV -e 48 -c 2 -a 0 -i 0 -k RTR
r -t 10.003974465 -s 2 -d -1 -p AODV -e 48 -c 2 -a 0 -i 0 -k RTR
r -t 10.003974885 -s 3 -d -1 -p AODV -e 48 -c 2 -a 0 -i 0 -k RTR
+ -t 10.004078809 -s 42 -d -1 -p AODV -e 48 -c 2 -a 0 -i 0 -k RTR 
- -t 10.004078809 -s 42 -d -1 -p AODV -e 48 -c 2 -a 0 -i 0 -k RTR
h -t 10.004078809 -s 42 -d -1 -p AODV -e 48 -c 2 -a 0 -i 0 -k RTR
+ -t 10.004117636 -s 46 -d -1 -p AODV -e 48 -c 2 -a 0 -i 0 -k RTR 
- -t 10.004117636 -s 46 -d -1 -p AODV -e 48 -c 2 -a 0 -i 0 -k RTR
h -t 10.004117636 -s 46 -d -1 -p AODV -e 48 -c 2 -a 0 -i 0 -k RTR
+ -t 10.004344646 -s 6 -d -1 -p AODV -e 48 -c 2 -a 0 -i 0 -k RTR 
- -t 10.004344646 -s 6 -d -1 -p AODV -e 48 -c 2 -a 0 -i 0 -k RTR
h -t 10.004344646 -s 6 -d -1 -p AODV -e 48 -c 2 -a 0 -i 0 -k RTR
+ -t 10.004475428 -s 31 -d -1 -p AODV -e 48 -c 2 -a 0 -i 0 -k RTR 
- -t 10.004475428 -s 31 -d -1 -p AODV -e 48 -c 2 -a 0 -i 0 -k RTR
h -t 10.004475428 -s 31 -d -1 -p AODV -e 48 -c 2 -a 0 -i 0 -k RTR
r -t 10.004912331 -s 21 -d -1 -p AODV -e 48 -c 2 -a 0 -i 0 -k RTR
r -t 10.004912331 -s 20 -d -1 -p AODV -e 48 -c 2 -a 0 -i 0 -k RTR
r -t 10.004912331 -s 19 -d -1 -p AODV -e 48 -c 2 -a 0 -i 0 -k RTR
r -t 10.004912331 -s 18 -d -1 -p AODV -e 48 -c 2 -a 0 -i 0 -k RTR
r -t 10.004912331 -s 17 -d -1 -p AODV -e 48 -c 2 -a 0 -i 0 -k RTR
r -t 10.004912331 -s 16 -d -1 -p AODV -e 48 -c 2 -a 0 -i 0 -k RTR
r -t 10.004912331 -s 15 -d -1 -p AODV -e 48 -c 2 -a 0 -i 0 -k RTR
r -t 10.004912331 -s 14 -d -1 -p AODV -e 48 -c 2 -a 0 -i 0 -k RTR
r -t 10.004912331 -s 13 -d -1 -p AODV -e 48 -c 2 -a 0 -i 0 -k RTR
r -t 10.004912331 -s 12 -d -1 -p AODV -e 48 -c 2 -a 0 -i 0 -k RTR
r -t 10.004912331 -s 11 -d -1 -p AODV -e 48 -c 2 -a 0 -i 0 -k RTR
r -t 10.004912331 -s 10 -d -1 -p AODV -e 48 -c 2 -a 0 -i 0 -k RTR
r -t 10.004912331 -s 9 -d -1 -p AODV -e 48 -c 2 -a 0 -i 0 -k RTR
r -t 10.004912331 -s 8 -d -1 -p AODV -e 48 -c 2 -a 0 -i 0 -k RTR
r -t 10.004912331 -s 7 -d -1 -p AODV -e 48 -c 2 -a 0 -i 0 -k RTR
r -t 10.004912331 -s 6 -d -1 -p AODV -e 48 -c 2 -a 0 -i 0 -k RTR
r -t 10.004912331 -s 5 -d -1 -p AODV -e 48 -c 2 -a 0 -i 0 -k RTR
r -t 10.004912331 -s 4 -d -1 -p AODV -e 48 -c 2 -a 0 -i 0 -k RTR
r -t 10.004912331 -s 23 -d -1 -p AODV -e 48 -c 2 -a 0 -i 0 -k RTR
r -t 10.004912331 -s 24 -d -1 -p AODV -e 48 -c 2 -a 0 -i 0 -k RTR
r -t 10.004912331 -s 25 -d -1 -p AODV -e 48 -c 2 -a 0 -i 0 -k RTR
r -t 10.004912331 -s 26 -d -1 -p AODV -e 48 -c 2 -a 0 -i 0 -k RTR
r -t 10.004912331 -s 27 -d -1 -p AODV -e 48 -c 2 -a 0 -i 0 -k RTR
r -t 10.004912331 -s 28 -d -1 -p AODV -e 48 -c 2 -a 0 -i 0 -k RTR
r -t 10.004912331 -s 29 -d -1 -p AODV -e 48 -c 2 -a 0 -i 0 -k RTR
r -t 10.004912331 -s 30 -d -1 -p AODV -e 48 -c 2 -a 0 -i 0 -k RTR
r -t 10.004912331 -s 31 -d -1 -p AODV -e 48 -c 2 -a 0 -i 0 -k RTR
r -t 10.004912331 -s 32 -d -1 -p AODV -e 48 -c 2 -a 0 -i 0 -k RTR
r -t 10.004912331 -s 33 -d -1 -p AODV -e 48 -c 2 -a 0 -i 0 -k RTR
r -t 10.004912331 -s 34 -d -1 -p AODV -e 48 -c 2 -a 0 -i 0 -k RTR
r -t 10.004912331 -s 35 -d -1 -p AODV -e 48 -c 2 -a 0 -i 0 -k RTR
r -t 10.004912331 -s 36 -d -1 -p AODV -e 48 -c 2 -a 0 -i 0 -k RTR
r -t 10.004912331 -s 37 -d -1 -p AODV -e 48 -c 2 -a 0 -i 0 -k RTR
r -t 10.004912331 -s 38 -d -1 -p AODV -e 48 -c 2 -a 0 -i 0 -k RTR
r -t 10.004912331 -s 39 -d -1 -p AODV -e 48 -c 2 -a 0 -i 0 -k RTR
r -t 10.004912331 -s 40 -d -1 -p AODV -e 48 -c 2 -a 0 -i 0 -k RTR
r -t 10.004912331 -s 41 -d -1 -p AODV -e 48 -c 2 -a 0 -i 0 -k RTR
r -t 10.004912331 -s 42 -d -1 -p AODV -e 48 -c 2 -a 0 -i 0 -k RTR
r -t 10.004912331 -s 43 -d -1 -p AODV -e 48 -c 2 -a 0 -i 0 -k RTR
r -t 10.004912331 -s 44 -d -1 -p AODV -e 48 -c 2 -a 0 -i 0 -k RTR
r -t 10.004912331 -s 45 -d -1 -p AODV -e 48 -c 2 -a 0 -i 0 -k RTR
r -t 10.004912331 -s 46 -d -1 -p AODV -e 48 -c 2 -a 0 -i 0 -k RTR
r -t 10.004912331 -s 47 -d -1 -p AODV -e 48 -c 2 -a 0 -i 0 -k RTR
r -t 10.004912331 -s 48 -d -1 -p AODV -e 48 -c 2 -a 0 -i 0 -k RTR
r -t 10.004912331 -s 49 -d -1 -p AODV -e 48 -c 2 -a 0 -i 0 -k RTR
r -t 10.004912349 -s 0 -d -1 -p AODV -e 48 -c 2 -a 0 -i 0 -k RTR
r -t 10.004912465 -s 2 -d -1 -p AODV -e 48 -c 2 -a 0 -i 0 -k RTR
r -t 10.004912885 -s 3 -d -1 -p AODV -e 48 -c 2 -a 0 -i 0 -k RTR
+ -t 10.005030093 -s 15 -d -1 -p AODV -e 48 -c 2 -a 0 -i 0 -k RTR 
- -t 10.005030093 -s 15 -d -1 -p AODV -e 48 -c 2 -a 0 -i 0 -k RTR
h -t 10.005030093 -s 15 -d -1 -p AODV -e 48 -c 2 -a 0 -i 0 -k RTR
+ -t 10.005043209 -s 17 -d -1 -p AODV -e 48 -c 2 -a 0 -i 0 -k RTR 
- -t 10.005043209 -s 17 -d -1 -p AODV -e 48 -c 2 -a 0 -i 0 -k RTR
h -t 10.005043209 -s 17 -d -1 -p AODV -e 48 -c 2 -a 0 -i 0 -k RTR
+ -t 10.005074875 -s 29 -d -1 -p AODV -e 48 -c 2 -a 0 -i 0 -k RTR 
- -t 10.005074875 -s 29 -d -1 -p AODV -e 48 -c 2 -a 0 -i 0 -k RTR
h -t 10.005074875 -s 29 -d -1 -p AODV -e 48 -c 2 -a 0 -i 0 -k RTR
+ -t 10.005224585 -s 35 -d -1 -p AODV -e 48 -c 2 -a 0 -i 0 -k RTR 
- -t 10.005224585 -s 35 -d -1 -p AODV -e 48 -c 2 -a 0 -i 0 -k RTR
h -t 10.005224585 -s 35 -d -1 -p AODV -e 48 -c 2 -a 0 -i 0 -k RTR
+ -t 10.005399752 -s 48 -d -1 -p AODV -e 48 -c 2 -a 0 -i 0 -k RTR 
- -t 10.005399752 -s 48 -d -1 -p AODV -e 48 -c 2 -a 0 -i 0 -k RTR
h -t 10.005399752 -s 48 -d -1 -p AODV -e 48 -c 2 -a 0 -i 0 -k RTR
+ -t 10.005649177 -s 27 -d -1 -p AODV -e 48 -c 2 -a 0 -i 0 -k RTR 
- -t 10.005649177 -s 27 -d -1 -p AODV -e 48 -c 2 -a 0 -i 0 -k RTR
h -t 10.005649177 -s 27 -d -1 -p AODV -e 48 -c 2 -a 0 -i 0 -k RTR
r -t 10.005830331 -s 48 -d -1 -p AODV -e 48 -c 2 -a 0 -i 0 -k RTR
r -t 10.005830331 -s 47 -d -1 -p AODV -e 48 -c 2 -a 0 -i 0 -k RTR
r -t 10.005830331 -s 46 -d -1 -p AODV -e 48 -c 2 -a 0 -i 0 -k RTR
r -t 10.005830331 -s 45 -d -1 -p AODV -e 48 -c 2 -a 0 -i 0 -k RTR
r -t 10.005830331 -s 44 -d -1 -p AODV -e 48 -c 2 -a 0 -i 0 -k RTR
r -t 10.005830331 -s 43 -d -1 -p AODV -e 48 -c 2 -a 0 -i 0 -k RTR
r -t 10.005830331 -s 42 -d -1 -p AODV -e 48 -c 2 -a 0 -i 0 -k RTR
r -t 10.005830331 -s 41 -d -1 -p AODV -e 48 -c 2 -a 0 -i 0 -k RTR
r -t 10.005830331 -s 40 -d -1 -p AODV -e 48 -c 2 -a 0 -i 0 -k RTR
r -t 10.005830331 -s 39 -d -1 -p AODV -e 48 -c 2 -a 0 -i 0 -k RTR
r -t 10.005830331 -s 38 -d -1 -p AODV -e 48 -c 2 -a 0 -i 0 -k RTR
r -t 10.005830331 -s 37 -d -1 -p AODV -e 48 -c 2 -a 0 -i 0 -k RTR
r -t 10.005830331 -s 36 -d -1 -p AODV -e 48 -c 2 -a 0 -i 0 -k RTR
r -t 10.005830331 -s 35 -d -1 -p AODV -e 48 -c 2 -a 0 -i 0 -k RTR
r -t 10.005830331 -s 34 -d -1 -p AODV -e 48 -c 2 -a 0 -i 0 -k RTR
r -t 10.005830331 -s 33 -d -1 -p AODV -e 48 -c 2 -a 0 -i 0 -k RTR
r -t 10.005830331 -s 32 -d -1 -p AODV -e 48 -c 2 -a 0 -i 0 -k RTR
r -t 10.005830331 -s 31 -d -1 -p AODV -e 48 -c 2 -a 0 -i 0 -k RTR
r -t 10.005830331 -s 30 -d -1 -p AODV -e 48 -c 2 -a 0 -i 0 -k RTR
r -t 10.005830331 -s 29 -d -1 -p AODV -e 48 -c 2 -a 0 -i 0 -k RTR
r -t 10.005830331 -s 28 -d -1 -p AODV -e 48 -c 2 -a 0 -i 0 -k RTR
r -t 10.005830331 -s 27 -d -1 -p AODV -e 48 -c 2 -a 0 -i 0 -k RTR
r -t 10.005830331 -s 26 -d -1 -p AODV -e 48 -c 2 -a 0 -i 0 -k RTR
r -t 10.005830331 -s 25 -d -1 -p AODV -e 48 -c 2 -a 0 -i 0 -k RTR
r -t 10.005830331 -s 24 -d -1 -p AODV -e 48 -c 2 -a 0 -i 0 -k RTR
r -t 10.005830331 -s 23 -d -1 -p AODV -e 48 -c 2 -a 0 -i 0 -k RTR
r -t 10.005830331 -s 22 -d -1 -p AODV -e 48 -c 2 -a 0 -i 0 -k RTR
r -t 10.005830331 -s 21 -d -1 -p AODV -e 48 -c 2 -a 0 -i 0 -k RTR
r -t 10.005830331 -s 20 -d -1 -p AODV -e 48 -c 2 -a 0 -i 0 -k RTR
r -t 10.005830331 -s 19 -d -1 -p AODV -e 48 -c 2 -a 0 -i 0 -k RTR
r -t 10.005830331 -s 18 -d -1 -p AODV -e 48 -c 2 -a 0 -i 0 -k RTR
r -t 10.005830331 -s 17 -d -1 -p AODV -e 48 -c 2 -a 0 -i 0 -k RTR
r -t 10.005830331 -s 16 -d -1 -p AODV -e 48 -c 2 -a 0 -i 0 -k RTR
r -t 10.005830331 -s 15 -d -1 -p AODV -e 48 -c 2 -a 0 -i 0 -k RTR
r -t 10.005830331 -s 14 -d -1 -p AODV -e 48 -c 2 -a 0 -i 0 -k RTR
r -t 10.005830331 -s 13 -d -1 -p AODV -e 48 -c 2 -a 0 -i 0 -k RTR
r -t 10.005830331 -s 12 -d -1 -p AODV -e 48 -c 2 -a 0 -i 0 -k RTR
r -t 10.005830331 -s 11 -d -1 -p AODV -e 48 -c 2 -a 0 -i 0 -k RTR
r -t 10.005830331 -s 10 -d -1 -p AODV -e 48 -c 2 -a 0 -i 0 -k RTR
r -t 10.005830331 -s 9 -d -1 -p AODV -e 48 -c 2 -a 0 -i 0 -k RTR
r -t 10.005830331 -s 8 -d -1 -p AODV -e 48 -c 2 -a 0 -i 0 -k RTR
r -t 10.005830331 -s 7 -d -1 -p AODV -e 48 -c 2 -a 0 -i 0 -k RTR
r -t 10.005830331 -s 6 -d -1 -p AODV -e 48 -c 2 -a 0 -i 0 -k RTR
r -t 10.005830331 -s 5 -d -1 -p AODV -e 48 -c 2 -a 0 -i 0 -k RTR
r -t 10.005830331 -s 4 -d -1 -p AODV -e 48 -c 2 -a 0 -i 0 -k RTR
r -t 10.005830349 -s 0 -d -1 -p AODV -e 48 -c 2 -a 0 -i 0 -k RTR
r -t 10.005830465 -s 2 -d -1 -p AODV -e 48 -c 2 -a 0 -i 0 -k RTR
r -t 10.005830885 -s 3 -d -1 -p AODV -e 48 -c 2 -a 0 -i 0 -k RTR
+ -t 10.006174506 -s 28 -d -1 -p AODV -e 48 -c 2 -a 0 -i 0 -k RTR 
- -t 10.006174506 -s 28 -d -1 -p AODV -e 48 -c 2 -a 0 -i 0 -k RTR
h -t 10.006174506 -s 28 -d -1 -p AODV -e 48 -c 2 -a 0 -i 0 -k RTR
r -t 10.006788331 -s 34 -d -1 -p AODV -e 48 -c 2 -a 0 -i 0 -k RTR
r -t 10.006788331 -s 33 -d -1 -p AODV -e 48 -c 2 -a 0 -i 0 -k RTR
r -t 10.006788331 -s 32 -d -1 -p AODV -e 48 -c 2 -a 0 -i 0 -k RTR
r -t 10.006788331 -s 31 -d -1 -p AODV -e 48 -c 2 -a 0 -i 0 -k RTR
r -t 10.006788331 -s 30 -d -1 -p AODV -e 48 -c 2 -a 0 -i 0 -k RTR
r -t 10.006788331 -s 29 -d -1 -p AODV -e 48 -c 2 -a 0 -i 0 -k RTR
r -t 10.006788331 -s 28 -d -1 -p AODV -e 48 -c 2 -a 0 -i 0 -k RTR
r -t 10.006788331 -s 27 -d -1 -p AODV -e 48 -c 2 -a 0 -i 0 -k RTR
r -t 10.006788331 -s 26 -d -1 -p AODV -e 48 -c 2 -a 0 -i 0 -k RTR
r -t 10.006788331 -s 25 -d -1 -p AODV -e 48 -c 2 -a 0 -i 0 -k RTR
r -t 10.006788331 -s 24 -d -1 -p AODV -e 48 -c 2 -a 0 -i 0 -k RTR
r -t 10.006788331 -s 23 -d -1 -p AODV -e 48 -c 2 -a 0 -i 0 -k RTR
r -t 10.006788331 -s 22 -d -1 -p AODV -e 48 -c 2 -a 0 -i 0 -k RTR
r -t 10.006788331 -s 21 -d -1 -p AODV -e 48 -c 2 -a 0 -i 0 -k RTR
r -t 10.006788331 -s 20 -d -1 -p AODV -e 48 -c 2 -a 0 -i 0 -k RTR
r -t 10.006788331 -s 19 -d -1 -p AODV -e 48 -c 2 -a 0 -i 0 -k RTR
r -t 10.006788331 -s 18 -d -1 -p AODV -e 48 -c 2 -a 0 -i 0 -k RTR
r -t 10.006788331 -s 17 -d -1 -p AODV -e 48 -c 2 -a 0 -i 0 -k RTR
r -t 10.006788331 -s 16 -d -1 -p AODV -e 48 -c 2 -a 0 -i 0 -k RTR
r -t 10.006788331 -s 15 -d -1 -p AODV -e 48 -c 2 -a 0 -i 0 -k RTR
r -t 10.006788331 -s 14 -d -1 -p AODV -e 48 -c 2 -a 0 -i 0 -k RTR
r -t 10.006788331 -s 13 -d -1 -p AODV -e 48 -c 2 -a 0 -i 0 -k RTR
r -t 10.006788331 -s 12 -d -1 -p AODV -e 48 -c 2 -a 0 -i 0 -k RTR
r -t 10.006788331 -s 11 -d -1 -p AODV -e 48 -c 2 -a 0 -i 0 -k RTR
r -t 10.006788331 -s 10 -d -1 -p AODV -e 48 -c 2 -a 0 -i 0 -k RTR
r -t 10.006788331 -s 9 -d -1 -p AODV -e 48 -c 2 -a 0 -i 0 -k RTR
r -t 10.006788331 -s 8 -d -1 -p AODV -e 48 -c 2 -a 0 -i 0 -k RTR
r -t 10.006788331 -s 7 -d -1 -p AODV -e 48 -c 2 -a 0 -i 0 -k RTR
r -t 10.006788331 -s 6 -d -1 -p AODV -e 48 -c 2 -a 0 -i 0 -k RTR
r -t 10.006788331 -s 5 -d -1 -p AODV -e 48 -c 2 -a 0 -i 0 -k RTR
r -t 10.006788331 -s 4 -d -1 -p AODV -e 48 -c 2 -a 0 -i 0 -k RTR
r -t 10.006788331 -s 36 -d -1 -p AODV -e 48 -c 2 -a 0 -i 0 -k RTR
r -t 10.006788331 -s 37 -d -1 -p AODV -e 48 -c 2 -a 0 -i 0 -k RTR
r -t 10.006788331 -s 38 -d -1 -p AODV -e 48 -c 2 -a 0 -i 0 -k RTR
r -t 10.006788331 -s 39 -d -1 -p AODV -e 48 -c 2 -a 0 -i 0 -k RTR
r -t 10.006788331 -s 40 -d -1 -p AODV -e 48 -c 2 -a 0 -i 0 -k RTR
r -t 10.006788331 -s 41 -d -1 -p AODV -e 48 -c 2 -a 0 -i 0 -k RTR
r -t 10.006788331 -s 42 -d -1 -p AODV -e 48 -c 2 -a 0 -i 0 -k RTR
r -t 10.006788331 -s 43 -d -1 -p AODV -e 48 -c 2 -a 0 -i 0 -k RTR
r -t 10.006788331 -s 44 -d -1 -p AODV -e 48 -c 2 -a 0 -i 0 -k RTR
r -t 10.006788331 -s 45 -d -1 -p AODV -e 48 -c 2 -a 0 -i 0 -k RTR
r -t 10.006788331 -s 46 -d -1 -p AODV -e 48 -c 2 -a 0 -i 0 -k RTR
r -t 10.006788331 -s 47 -d -1 -p AODV -e 48 -c 2 -a 0 -i 0 -k RTR
r -t 10.006788331 -s 48 -d -1 -p AODV -e 48 -c 2 -a 0 -i 0 -k RTR
r -t 10.006788331 -s 49 -d -1 -p AODV -e 48 -c 2 -a 0 -i 0 -k RTR
r -t 10.006788349 -s 0 -d -1 -p AODV -e 48 -c 2 -a 0 -i 0 -k RTR
r -t 10.006788465 -s 2 -d -1 -p AODV -e 48 -c 2 -a 0 -i 0 -k RTR
r -t 10.006788885 -s 3 -d -1 -p AODV -e 48 -c 2 -a 0 -i 0 -k RTR
+ -t 10.006938292 -s 7 -d -1 -p AODV -e 48 -c 2 -a 0 -i 0 -k RTR 
- -t 10.006938292 -s 7 -d -1 -p AODV -e 48 -c 2 -a 0 -i 0 -k RTR
h -t 10.006938292 -s 7 -d -1 -p AODV -e 48 -c 2 -a 0 -i 0 -k RTR
+ -t 10.007376669 -s 43 -d -1 -p AODV -e 48 -c 2 -a 0 -i 0 -k RTR 
- -t 10.007376669 -s 43 -d -1 -p AODV -e 48 -c 2 -a 0 -i 0 -k RTR
h -t 10.007376669 -s 43 -d -1 -p AODV -e 48 -c 2 -a 0 -i 0 -k RTR
+ -t 10.007388695 -s 38 -d -1 -p AODV -e 48 -c 2 -a 0 -i 0 -k RTR 
- -t 10.007388695 -s 38 -d -1 -p AODV -e 48 -c 2 -a 0 -i 0 -k RTR
h -t 10.007388695 -s 38 -d -1 -p AODV -e 48 -c 2 -a 0 -i 0 -k RTR
+ -t 10.007674257 -s 4 -d -1 -p AODV -e 48 -c 2 -a 0 -i 0 -k RTR 
- -t 10.007674257 -s 4 -d -1 -p AODV -e 48 -c 2 -a 0 -i 0 -k RTR
h -t 10.007674257 -s 4 -d -1 -p AODV -e 48 -c 2 -a 0 -i 0 -k RTR
+ -t 10.007761507 -s 20 -d -1 -p AODV -e 48 -c 2 -a 0 -i 0 -k RTR 
- -t 10.007761507 -s 20 -d -1 -p AODV -e 48 -c 2 -a 0 -i 0 -k RTR
h -t 10.007761507 -s 20 -d -1 -p AODV -e 48 -c 2 -a 0 -i 0 -k RTR
+ -t 10.007911086 -s 26 -d -1 -p AODV -e 48 -c 2 -a 0 -i 0 -k RTR 
- -t 10.007911086 -s 26 -d -1 -p AODV -e 48 -c 2 -a 0 -i 0 -k RTR
h -t 10.007911086 -s 26 -d -1 -p AODV -e 48 -c 2 -a 0 -i 0 -k RTR
+ -t 10.007975270 -s 3 -d -1 -p AODV -e 48 -c 2 -a 0 -i 0 -k RTR 
- -t 10.007975270 -s 3 -d -1 -p AODV -e 48 -c 2 -a 0 -i 0 -k RTR
h -t 10.007975270 -s 3 -d -1 -p AODV -e 48 -c 2 -a 0 -i 0 -k RTR
+ -t 10.008610337 -s 19 -d -1 -p AODV -e 48 -c 2 -a 0 -i 0 -k RTR 
- -t 10.008610337 -s 19 -d -1 -p AODV -e 48 -c 2 -a 0 -i 0 -k RTR
h -t 10.008610337 -s 19 -d -1 -p AODV -e 48 -c 2 -a 0 -i 0 -k RTR
+ -t 10.008979572 -s 47 -d -1 -p AODV -e 48 -c 2 -a 0 -i 0 -k RTR 
- -t 10.008979572 -s 47 -d -1 -p AODV -e 48 -c 2 -a 0 -i 0 -k RTR