M 10.00000 0 (5.00, 2.00, 0.00), (20.00, 18.00), 1.00
s 10.000000000 _0_ AGT  --- 0 tcp 40 [0 0 0 0] ------- [0:0 1:0 32 0] [0 0] 0 0
r 10.000000000 _0_ RTR  --- 0 tcp 40 [0 0 0 0] ------- [0:0 1:0 32 0] [0 0] 0 0
s 10.000000000 _0_ RTR  --- 0 AODV 48 [0 0 0 0] ------- [0:255 -1:255 30 0] [0x2 1 1 [1 0] [0 4]] (REQUEST)
r 10.000988018 _49_ RTR  --- 0 AODV 48 [0 ffffffff 0 800] ------- [0:255 -1:255 30 0] [0x2 1 1 [1 0] [0 4]] (REQUEST)
r 10.000988018 _48_ RTR  --- 0 AODV 48 [0 ffffffff 0 800] ------- [0:255 -1:255 30 0] [0x2 1 1 [1 0] [0 4]] (REQUEST)
r 10.000988018 _47_ RTR  --- 0 AODV 48 [0 ffffffff 0 800] ------- [0:255 -1:255 30 0] [0x2 1 1 [1 0] [0 4]] (REQUEST)
r 10.000988018 _46_ RTR  --- 0 AODV 48 [0 ffffffff 0 800] ------- [0:255 -1:255 30 0] [0x2 1 1 [1 0] [0 4]] (REQUEST)
r 10.000988018 _45_ RTR  --- 0 AODV 48 [0 ffffffff 0 800] ------- [0:255 -1:255 30 0] [0x2 1 1 [1 0] [0 4]] (REQUEST)
r 10.000988018 _44_ RTR  --- 0 AODV 48 [0 ffffffff 0 800] ------- [0:255 -1:255 30 0] [0x2 1 1 [1 0] [0 4]] (REQUEST)
r 10.000988018 _43_ RTR  --- 0 AODV 48 [0 ffffffff 0 800] ------- [0:255 -1:255 30 0] [0x2 1 1 [1 0] [0 4]] (REQUEST)
r 10.000988018 _42_ RTR  --- 0 AODV 48 [0 ffffffff 0 800] ------- [0:255 -1:255 30 0] [0x2 1 1 [1 0] [0 4]] (REQUEST)
r 10.000988018 _41_ RTR  --- 0 AODV 48 [0 ffffffff 0 800] ------- [0:255 -1:255 30 0] [0x2 1 1 [1 0] [0 4]] (REQUEST)
r 10.000988018 _40_ RTR  --- 0 AODV 48 [0 ffffffff 0 800] ------- [0:255 -1:255 30 0] [0x2 1 1 [1 0] [0 4]] (REQUEST)
r 10.000988018 _39_ RTR  --- 0 AODV 48 [0 ffffffff 0 800] ------- [0:255 -1:255 30 0] [0x2 1 1 [1 0] [0 4]] (REQUEST)
r 10.000988018 _38_ RTR  --- 0 AODV 48 [0 ffffffff 0 800] ------- [0:255 -1:255 30 0] [0x2 1 1 [1 0] [0 4]] (REQUEST)
r 10.000988018 _37_ RTR  --- 0 AODV 48 [0 ffffffff 0 800] ------- [0:255 -1:255 30 0] [0x2 1 1 [1 0] [0 4]] (REQUEST)
r 10.000988018 _36_ RTR  --- 0 AODV 48 [0 ffffffff 0 800] ------- [0:255 -1:255 30 0] [0x2 1 1 [1 0] [0 4]] (REQUEST)
r 10.000988018 _35_ RTR  --- 0 AODV 48 [0 ffffffff 0 800] ------- [0:255 -1:255 30 0] [0x2 1 1 [1 0] [0 4]] (REQUEST)
r 10.000988018 _34_ RTR  --- 0 AODV 48 [0 ffffffff 0 800] ------- [0:255 -1:255 30 0] [0x2 1 1 [1 0] [0 4]] (REQUEST)
r 10.000988018 _33_ RTR  --- 0 AODV 48 [0 ffffffff 0 800] ------- [0:255 -1:255 30 0] [0x2 1 1 [1 0] [0 4]] (REQUEST)
r 10.000988018 _32_ RTR  --- 0 AODV 48 [0 ffffffff 0 800] ------- [0:255 -1:255 30 0] [0x2 1 1 [1 0] [0 4]] (REQUEST)
r 10.000988018 _31_ RTR  --- 0 AODV 48 [0 ffffffff 0 800] ------- [0:255 -1:255 30 0] [0x2 1 1 [1 0] [0 4]] (REQUEST)
r 10.000988018 _30_ RTR  --- 0 AODV 48 [0 ffffffff 0 800] ------- [0:255 -1:255 30 0] [0x2 1 1 [1 0] [0 4]] (REQUEST)
r 10.000988018 _29_ RTR  --- 0 AODV 48 [0 ffffffff 0 800] ------- [0:255 -1:255 30 0] [0x2 1 1 [1 0] [0 4]] (REQUEST)
r 10.000988018 _28_ RTR  --- 0 AODV 48 [0 ffffffff 0 800] ------- [0:255 -1:255 30 0] [0x2 1 1 [1 0] [0 4]] (REQUEST)
r 10.000988018 _27_ RTR  --- 0 AODV 48 [0 ffffffff 0 800] ------- [0:255 -1:255 30 0] [0x2 1 1 [1 0] [0 4]] (REQUEST)
r 10.000988018 _26_ RTR  --- 0 AODV 48 [0 ffffffff 0 800] ------- [0:255 -1:255 30 0] [0x2 1 1 [1 0] [0 4]] (REQUEST)
r 10.000988018 _25_ RTR  --- 0 AODV 48 [0 ffffffff 0 800] ------- [0:255 -1:255 30 0] [0x2 1 1 [1 0] [0 4]] (REQUEST)
r 10.000988018 _24_ RTR  --- 0 AODV 48 [0 ffffffff 0 800] ------- [0:255 -1:255 30 0] [0x2 1 1 [1 0] [0 4]] (REQUEST)
r 10.000988018 _23_ RTR  --- 0 AODV 48 [0 ffffffff 0 800] ------- [0:255 -1:255 30 0] [0x2 1 1 [1 0] [0 4]] (REQUEST)
r 10.000988018 _22_ RTR  --- 0 AODV 48 [0 ffffffff 0 800] ------- [0:255 -1:255 30 0] [0x2 1 1 [1 0] [0 4]] (REQUEST)
r 10.000988018 _21_ RTR  --- 0 AODV 48 [0 ffffffff 0 800] ------- [0:255 -1:255 30 0] [0x2 1 1 [1 0] [0 4]] (REQUEST)
r 10.000988018 _20_ RTR  --- 0 AODV 48 [0 ffffffff 0 800] ------- [0:255 -1:255 30 0] [0x2 1 1 [1 0] [0 4]] (REQUEST)
r 10.000988018 _19_ RTR  --- 0 AODV 48 [0 ffffffff 0 800] ------- [0:255 -1:255 30 0] [0x2 1 1 [1 0] [0 4]] (REQUEST)
r 10.000988018 _18_ RTR  --- 0 AODV 48 [0 ffffffff 0 800] ------- [0:255 -1:255 30 0] [0x2 1 1 [1 0] [0 4]] (REQUEST)
r 10.000988018 _17_ RTR  --- 0 AODV 48 [0 ffffffff 0 800] ------- [0:255 -1:255 30 0] [0x2 1 1 [1 0] [0 4]] (REQUEST)
r 10.000988018 _16_ RTR  --- 0 AODV 48 [0 ffffffff 0 800] ------- [0:255 -1:255 30 0] [0x2 1 1 [1 0] [0 4]] (REQUEST)
r 10.000988018 _15_ RTR  --- 0 AODV 48 [0 ffffffff 0 800] ------- [0:255 -1:255 30 0] [0x2 1 1 [1 0] [0 4]] (REQUEST)
r 10.000988018 _14_ RTR  --- 0 AODV 48 [0 ffffffff 0 800] ------- [0:255 -1:255 30 0] [0x2 1 1 [1 0] [0 4]] (REQUEST)
r 10.000988018 _13_ RTR  --- 0 AODV 48 [0 ffffffff 0 800] ------- [0:255 -1:255 30 0] [0x2 1 1 [1 0] [0 4]] (REQUEST)
r 10.000988018 _12_ RTR  --- 0 AODV 48 [0 ffffffff 0 800] ------- [0:255 -1:255 30 0] [0x2 1 1 [1 0] [0 4]] (REQUEST)
r 10.000988018 _11_ RTR  --- 0 AODV 48 [0 ffffffff 0 800] ------- [0:255 -1:255 30 0] [0x2 1 1 [1 0] [0 4]] (REQUEST)
r 10.000988018 _10_ RTR  --- 0 AODV 48 [0 ffffffff 0 800] ------- [0:255 -1:255 30 0] [0x2 1 1 [1 0] [0 4]] (REQUEST)
r 10.000988018 _9_ RTR  --- 0 AODV 48 [0 ffffffff 0 800] ------- [0:255 -1:255 30 0] [0x2 1 1 [1 0] [0 4]] (REQUEST)
r 10.000988018 _8_ RTR  --- 0 AODV 48 [0 ffffffff 0 800] ------- [0:255 -1:255 30 0] [0x2 1 1 [1 0] [0 4]] (REQUEST)
r 10.000988018 _7_ RTR  --- 0 AODV 48 [0 ffffffff 0 800] ------- [0:255 -1:255 30 0] [0x2 1 1 [1 0] [0 4]] (REQUEST)
r 10.000988018 _6_ RTR  --- 0 AODV 48 [0 ffffffff 0 800] ------- [0:255 -1:255 30 0] [0x2 1 1 [1 0] [0 4]] (REQUEST)
r 10.000988018 _5_ RTR  --- 0 AODV 48 [0 ffffffff 0 800] ------- [0:255 -1:255 30 0] [0x2 1 1 [1 0] [0 4]] (REQUEST)
r 10.000988018 _4_ RTR  --- 0 AODV 48 [0 ffffffff 0 800] ------- [0:255 -1:255 30 0] [0x2 1 1 [1 0] [0 4]] (REQUEST)
r 10.000988121 _2_ RTR  --- 0 AODV 48 [0 ffffffff 0 800] ------- [0:255 -1:255 30 0] [0x2 1 1 [1 0] [0 4]] (REQUEST)
r 10.000988538 _3_ RTR  --- 0 AODV 48 [0 ffffffff 0 800] ------- [0:255 -1:255 30 0] [0x2 1 1 [1 0] [0 4]] (REQUEST)
s 10.001096101 _8_ RTR  --- 0 AODV 48 [0 ffffffff 0 800] ------- [8:255 -1:255 29 0] [0x2 2 1 [1 0] [0 4]] (REQUEST)
s 10.001415964 _39_ RTR  --- 0 AODV 48 [0 ffffffff 0 800] ------- [39:255 -1:255 29 0] [0x2 2 1 [1 0] [0 4]] (REQUEST)
s 10.001572044 _9_ RTR  --- 0 AODV 48 [0 ffffffff 0 800] ------- [9:255 -1:255 29 0] [0x2 2 1 [1 0] [0 4]] (REQUEST)
s 10.001869245 _49_ RTR  --- 0 AODV 48 [0 ffffffff 0 800] ------- [49:255 -1:255 29 0] [0x2 2 1 [1 0] [0 4]] (REQUEST)
s 10.001929406 _33_ RTR  --- 0 AODV 48 [0 ffffffff 0 800] ------- [33:255 -1:255 29 0] [0x2 2 1 [1 0] [0 4]] (REQUEST)
r 10.002044101 _7_ RTR  --- 0 AODV 48 [0 ffffffff 8 800] ------- [8:255 -1:255 29 0] [0x2 2 1 [1 0] [0 4]] (REQUEST)
r 10.002044101 _6_ RTR  --- 0 AODV 48 [0 ffffffff 8 800] ------- [8:255 -1:255 29 0] [0x2 2 1 [1 0] [0 4]] (REQUEST)
r 10.002044101 _5_ RTR  --- 0 AODV 48 [0 ffffffff 8 800] ------- [8:255 -1:255 29 0] [0x2 2 1 [1 0] [0 4]] (REQUEST)
r 10.002044101 _4_ RTR  --- 0 AODV 48 [0 ffffffff 8 800] ------- [8:255 -1:255 29 0] [0x2 2 1 [1 0] [0 4]] (REQUEST)
r 10.002044101 _9_ RTR  --- 0 AODV 48 [0 ffffffff 8 800] ------- [8:255 -1:255 29 0] [0x2 2 1 [1 0] [0 4]] (REQUEST)
r 10.002044101 _10_ RTR  --- 0 AODV 48 [0 ffffffff 8 800] ------- [8:255 -1:255 29 0] [0x2 2 1 [1 0] [0 4]] (REQUEST)
r 10.002044101 _11_ RTR  --- 0 AODV 48 [0 ffffffff 8 800] ------- [8:255 -1:255 29 0] [0x2 2 1 [1 0] [0 4]] (REQUEST)
r 10.002044101 _12_ RTR  --- 0 AODV 48 [0 ffffffff 8 800] ------- [8:255 -1:255 29 0] [0x2 2 1 [1 0] [0 4]] (REQUEST)
r 10.002044101 _13_ RTR  --- 0 AODV 48 [0 ffffffff 8 800] ------- [8:255 -1:255 29 0] [0x2 2 1 [1 0] [0 4]] (REQUEST)
r 10.002044101 _14_ RTR  --- 0 AODV 48 [0 ffffffff 8 800] ------- [8:255 -1:255 29 0] [0x2 2 1 [1 0] [0 4]] (REQUEST)
r 10.002044101 _15_ RTR  --- 0 AODV 48 [0 ffffffff 8 800] ------- [8:255 -1:255 29 0] [0x2 2 1 [1 0] [0 4]] (REQUEST)
r 10.002044101 _16_ RTR  --- 0 AODV 48 [0 ffffffff 8 800] ------- [8:255 -1:255 29 0] [0x2 2 1 [1 0] [0 4]] (REQUEST)
r 10.002044101 _17_ RTR  --- 0 AODV 48 [0 ffffffff 8 800] ------- [8:255 -1:255 29 0] [0x2 2 1 [1 0] [0 4]] (REQUEST)
r 10.002044101 _18_ RTR  --- 0 AODV 48 [0 ffffffff 8 800] ------- [8:255 -1:255 29 0] [0x2 2 1 [1 0] [0 4]] (REQUEST)
r 10.002044101 _19_ RTR  --- 0 AODV 48 [0 ffffffff 8 800] ------- [8:255 -1:255 29 0] [0x2 2 1 [1 0] [0 4]] (REQUEST)
r 10.002044101 _20_ RTR  --- 0 AODV 48 [0 ffffffff 8 800] ------- [8:255 -1:255 29 0] [0x2 2 1 [1 0] [0 4]] (REQUEST)
r 10.002044101 _21_ RTR  --- 0 AODV 48 [0 ffffffff 8 800] ------- [8:255 -1:255 29 0] [0x2 2 1 [1 0] [0 4]] (REQUEST)
r 10.002044101 _22_ RTR  --- 0 AODV 48 [0 ffffffff 8 800] ------- [8:255 -1:255 29 0] [0x2 2 1 [1 0] [0 4]] (REQUEST)
r 10.002044101 _23_ RTR  --- 0 AODV 48 [0 ffffffff 8 800] ------- [8:255 -1:255 29 0] [0x2 2 1 [1 0] [0 4]] (REQUEST)
r 10.002044101 _24_ RTR  --- 0 AODV 48 [0 ffffffff 8 800] ------- [8:255 -1:255 29 0] [0x2 2 1 [1 0] [0 4]] (REQUEST)
r 10.002044101 _25_ RTR  --- 0 AODV 48 [0 ffffffff 8 800] ------- [8:255 -1:255 29 0] [0x2 2 1 [1 0] [0 4]] (REQUEST)
r 10.002044101 _26_ RTR  --- 0 AODV 48 [0 ffffffff 8 800] ------- [8:255 -1:255 29 0] [0x2 2 1 [1 0] [0 4]] (REQUEST)
r 10.002044101 _27_ RTR  --- 0 AODV 48 [0 ffffffff 8 800] ------- [8:255 -1:255 29 0] [0x2 2 1 [1 0] [0 4]] (REQUEST)
r 10.002044101 _28_ RTR  --- 0 AODV 48 [0 ffffffff 8 800] ------- [8:255 -1:255 29 0] [0x2 2 1 [1 0] [0 4]] (REQUEST)
r 10.002044101 _29_ RTR  --- 0 AODV 48 [0 ffffffff 8 800] ------- [8:255 -1:255 29 0] [0x2 2 1 [1 0] [0 4]] (REQUEST)
r 10.002044101 _30_ RTR  --- 0 AODV 48 [0 ffffffff 8 800] ------- [8:255 -1:255 29 0] [0x2 2 1 [1 0] [0 4]] (REQUEST)
r 10.002044101 _31_ RTR  --- 0 AODV 48 [0 ffffffff 8 800] ------- [8:255 -1:255 29 0] [0x2 2 1 [1 0] [0 4]] (REQUEST)
r 10.002044101 _32_ RTR  --- 0 AODV 48 [0 ffffffff 8 800] ------- [8:255 -1:255 29 0] [0x2 2 1 [1 0] [0 4]] (REQUEST)
r 10.002044101 _33_ RTR  --- 0 AODV 48 [0 ffffffff 8 800] ------- [8:255 -1:255 29 0] [0x2 2 1 [1 0] [0 4]] (REQUEST)
r 10.002044101 _34_ RTR  --- 0 AODV 48 [0 ffffffff 8 800] ------- [8:255 -1:255 29 0] [0x2 2 1 [1 0] [0 4]] (REQUEST)
r 10.002044101 _35_ RTR  --- 0 AODV 48 [0 ffffffff 8 800] ------- [8:255 -1:255 29 0] [0x2 2 1 [1 0] [0 4]] (REQUEST)
r 10.002044101 _36_ RTR  --- 0 AODV 48 [0 ffffffff 8 800] ------- [8:255 -1:255 29 0] [0x2 2 1 [1 0] [0 4]] (REQUEST)
r 10.002044101 _37_ RTR  --- 0 AODV 48 [0 ffffffff 8 800] ------- [8:255 -1:255 29 0] [0x2 2 1 [1 0] [0 4]] (REQUEST)
r 10.002044101 _38_ RTR  --- 0 AODV 48 [0 ffffffff 8 800] ------- [8:255 -1:255 29 0] [0x2 2 1 [1 0] [0 4]] (REQUEST)
r 10.002044101 _39_ RTR  --- 0 AODV 48 [0 ffffffff 8 800] ------- [8:255 -1:255 29 0] [0x2 2 1 [1 0] [0 4]] (REQUEST)
r 10.002044101 _40_ RTR  --- 0 AODV 48 [0 ffffffff 8 800] ------- [8:255 -1:255 29 0] [0x2 2 1 [1 0] [0 4]] (REQUEST)
r 10.002044101 _41_ RTR  --- 0 AODV 48 [0 ffffffff 8 800] ------- [8:255 -1:255 29 0] [0x2 2 1 [1 0] [0 4]] (REQUEST)
r 10.002044101 _42_ RTR  --- 0 AODV 48 [0 ffffffff 8 800] ------- [8:255 -1:255 29 0] [0x2 2 1 [1 0] [0 4]] (REQUEST)
r 10.002044101 _43_ RTR  --- 0 AODV 48 [0 ffffffff 8 800] ------- [8:255 -1:255 29 0] [0x2 2 1 [1 0] [0 4]] (REQUEST)
r 10.002044101 _44_ RTR  --- 0 AODV 48 [0 ffffffff 8 800] ------- [8:255 -1:255 29 0] [0x2 2 1 [1 0] [0 4]] (REQUEST)
r 10.002044101 _45_ RTR  --- 0 AODV 48 [0 ffffffff 8 800] ------- [8:255 -1:255 29 0] [0x2 2 1 [1 0] [0 4]] (REQUEST)
r 10.002044101 _46_ RTR  --- 0 AODV 48 [0 ffffffff 8 800] ------- [8:255 -1:255 29 0] [0x2 2 1 [1 0] [0 4]] (REQUEST)
r 10.002044101 _47_ RTR  --- 0 AODV 48 [0 ffffffff 8 800] ------- [8:255 -1:255 29 0] [0x2 2 1 [1 0] [0 4]] (REQUEST)
r 10.002044101 _48_ RTR  --- 0 AODV 48 [0 ffffffff 8 800] ------- [8:255 -1:255 29 0] [0x2 2 1 [1 0] [0 4]] (REQUEST)
r 10.002044101 _49_ RTR  --- 0 AODV 48 [0 ffffffff 8 800] ------- [8:255 -1:255 29 0] [0x2 2 1 [1 0] [0 4]] (REQUEST)
r 10.002044119 _0_ RTR  --- 0 AODV 48 [0 ffffffff 8 800] ------- [8:255 -1:255 29 0] [0x2 2 1 [1 0] [0 4]] (REQUEST)
r 10.002044236 _2_ RTR  --- 0 AODV 48 [0 ffffffff 8 800] ------- [8:255 -1:255 29 0] [0x2 2 1 [1 0] [0 4]] (REQUEST)
r 10.002044655 _3_ RTR  --- 0 AODV 48 [0 ffffffff 8 800] ------- [8:255 -1:255 29 0] [0x2 2 1 [1 0] [0 4]] (REQUEST)
s 10.002080003 _16_ RTR  --- 0 AODV 48 [0 ffffffff 0 800] ------- [16:255 -1:255 29 0] [0x2 2 1 [1 0] [0 4]] (REQUEST)
s 10.002108331 _10_ RTR  --- 0 AODV 48 [0 ffffffff 0 800] ------- [10:255 -1:255 29 0] [0x2 2 1 [1 0] [0 4]] (REQUEST)
s 10.002126100 _37_ RTR  --- 0 AODV 48 [0 ffffffff 0 800] ------- [37:255 -1:255 29 0] [0x2 2 1 [1 0] [0 4]] (REQUEST)
s 10.002219053 _5_ RTR  --- 0 AODV 48 [0 ffffffff 0 800] ------- [5:255 -1:255 29 0] [0x2 2 1 [1 0] [0 4]] (REQUEST)
s 10.002629472 _40_ RTR  --- 0 AODV 48 [0 ffffffff 0 800] ------- [40:255 -1:255 29 0] [0x2 2 1 [1 0] [0 4]] (REQUEST)
s 10.002736070 _34_ RTR  --- 0 AODV 48 [0 ffffffff 0 800] ------- [34:255 -1:255 29 0] [0x2 2 1 [1 0] [0 4]] (REQUEST)
s 10.002861670 _14_ RTR  --- 0 AODV 48 [0 ffffffff 0 800] ------- [14:255 -1:255 29 0] [0x2 2 1 [1 0] [0 4]] (REQUEST)
r 10.003056331 _9_ RTR  --- 0 AODV 48 [0 ffffffff a 800] ------- [10:255 -1:255 29 0] [0x2 2 1 [1 0] [0 4]] (REQUEST)
r 10.003056331 _8_ RTR  --- 0 AODV 48 [0 ffffffff a 800] ------- [10:255 -1:255 29 0] [0x2 2 1 [1 0] [0 4]] (REQUEST)
r 10.003056331 _7_ RTR  --- 0 AODV 48 [0 ffffffff a 800] ------- [10:255 -1:255 29 0] [0x2 2 1 [1 0] [0 4]] (REQUEST)
r 10.003056331 _6_ RTR  --- 0 AODV 48 [0 ffffffff a 800] ------- [10:255 -1:255 29 0] [0x2 2 1 [1 0] [0 4]] (REQUEST)
r 10.003056331 _5_ RTR  --- 0 AODV 48 [0 ffffffff a 800] ------- [10:255 -1:255 29 0] [0x2 2 1 [1 0] [0 4]] (REQUEST)
r 10.003056331 _4_ RTR  --- 0 AODV 48 [0 ffffffff a 800] ------- [10:255 -1:255 29 0] [0x2 2 1 [1 0] [0 4]] (REQUEST)
r 10.003056331 _11_ RTR  --- 0 AODV 48 [0 ffffffff a 800] ------- [10:255 -1:255 29 0] [0x2 2 1 [1 0] [0 4]] (REQUEST)
r 10.003056331 _12_ RTR  --- 0 AODV 48 [0 ffffffff a 800] ------- [10:255 -1:255 29 0] [0x2 2 1 [1 0] [0 4]] (REQUEST)
r 10.003056331 _13_ RTR  --- 0 AODV 48 [0 ffffffff a 800] ------- [10:255 -1:255 29 0] [0x2 2 1 [1 0] [0 4]] (REQUEST)
r 10.003056331 _14_ RTR  --- 0 AODV 48 [0 ffffffff a 800] ------- [10:255 -1:255 29 0] [0x2 2 1 [1 0] [0 4]] (REQUEST)
r 10.003056331 _15_ RTR  --- 0 AODV 48 [0 ffffffff a 800] ------- [10:255 -1:255 29 0] [0x2 2 1 [1 0] [0 4]] (REQUEST)
r 10.003056331 _16_ RTR  --- 0 AODV 48 [0 ffffffff a 800] ------- [10:255 -1:255 29 0] [0x2 2 1 [1 0] [0 4]] (REQUEST)
r 10.003056331 _17_ RTR  --- 0 AODV 48 [0 ffffffff a 800] ------- [10:255 -1:255 29 0] [0x2 2 1 [1 0] [0 4]] (REQUEST)
r 10.003056331 _18_ RTR  --- 0 AODV 48 [0 ffffffff a 800] ------- [10:255 -1:255 29 0] [0x2 2 1 [1 0] [0 4]] (REQUEST)
r 10.003056331 _19_ RTR  --- 0 AODV 48 [0 ffffffff a 800] ------- [10:255 -1:255 29 0] [0x2 2 1 [1 0] [0 4]] (REQUEST)
r 10.003056331 _20_ RTR  --- 0 AODV 48 [0 ffffffff a 800] ------- [10:255 -1:255 29 0] [0x2 2 1 [1 0] [0 4]] (REQUEST)
r 10.003056331 _21_ RTR  --- 0 AODV 48 [0 ffffffff a 800] ------- [10:255 -1:255 29 0] [0x2 2 1 [1 0] [0 4]] (REQUEST)
r 10.003056331 _22_ RTR  --- 0 AODV 48 [0 ffffffff a 800] ------- [10:255 -1:255 29 0] [0x2 2 1 [1 0] [0 4]] (REQUEST)
r 10.003056331 _23_ RTR  --- 0 AODV 48 [0 ffffffff a 800] ------- [10:255 -1:255 29 0] [0x2 2 1 [1 0] [0 4]] (REQUEST)
r 10.003056331 _24_ RTR  --- 0 AODV 48 [0 ffffffff a 800] ------- [10:255 -1:255 29 0] [0x2 2 1 [1 0] [0 4]] (REQUEST)
r 10.003056331 _25_ RTR  --- 0 AODV 48 [0 ffffffff a 800] ------- [10:255 -1:255 29 0] [0x2 2 1 [1 0] [0 4]] (REQUEST)
r 10.003056331 _26_ RTR  --- 0 AODV 48 [0 ffffffff a 800] ------- [10:255 -1:255 29 0] [0x2 2 1 [1 0] [0 4]] (REQUEST)
r 10.003056331 _27_ RTR  --- 0 AODV 48 [0 ffffffff a 800] ------- [10:255 -1:255 29 0] [0x2 2 1 [1 0] [0 4]] (REQUEST)
r 10.003056331 _28_ RTR  --- 0 AODV 48 [0 ffffffff a 800] ------- [10:255 -1:255 29 0] [0x2 2 1 [1 0] [0 4]] (REQUEST)
r 10.003056331 _29_ RTR  --- 0 AODV 48 [0 ffffffff a 800] ------- [10:255 -1:255 29 0] [0x2 2 1 [1 0] [0 4]] (REQUEST)
r 10.003056331 _30_ RTR  --- 0 AODV 48 [0 ffffffff a 800] ------- [10:255 -1:255 29 0] [0x2 2 1 [1 0] [0 4]] (REQUEST)
r 10.003056331 _31_ RTR  --- 0 AODV 48 [0 ffffffff a 800] ------- [10:255 -1:255 29 0] [0x2 2 1 [1 0] [0 4]] (REQUEST)
r 10.003056331 _32_ RTR  --- 0 AODV 48 [0 ffffffff a 800] ------- [10:255 -1:255 29 0] [0x2 2 1 [1 0] [0 4]] (REQUEST)
r 10.003056331 _33_ RTR  --- 0 AODV 48 [0 ffffffff a 800] ------- [10:255 -1:255 29 0] [0x2 2 1 [1 0] [0 4]] (REQUEST)
r 10.003056331 _34_ RTR  --- 0 AODV 48 [0 ffffffff a 800] ------- [10:255 -1:255 29 0] [0x2 2 1 [1 0] [0 4]] (REQUEST)
r 10.003056331 _35_ RTR  --- 0 AODV 48 [0 ffffffff a 800] ------- [10:255 -1:255 29 0] [0x2 2 1 [1 0] [0 4]] (REQUEST)
r 10.003056331 _36_ RTR  --- 0 AODV 48 [0 ffffffff a 800] ------- [10:255 -1:255 29 0] [0x2 2 1 [1 0] [0 4]] (REQUEST)
r 10.003056331 _37_ RTR  --- 0 AODV 48 [0 ffffffff a 800] ------- [10:255 -1:255 29 0] [0x2 2 1 [1 0] [0 4]] (REQUEST)
r 10.003056331 _38_ RTR  --- 0 AODV 48 [0 ffffffff a 800] ------- [10:255 -1:255 29 0] [0x2 2 1 [1 0] [0 4]] (REQUEST)
r 10.003056331 _39_ RTR  --- 0 AODV 48 [0 ffffffff a 800] ------- [10:255 -1:255 29 0] [0x2 2 1 [1 0] [0 4]] (REQUEST)
r 10.003056331 _40_ RTR  --- 0 AODV 48 [0 ffffffff a 800] ------- [10:255 -1:255 29 0] [0x2 2 1 [1 0] [0 4]] (REQUEST)
r 10.003056331 _41_ RTR  --- 0 AODV 48 [0 ffffffff a 800] ------- [10:255 -1:255 29 0] [0x2 2 1 [1 0] [0 4]] (REQUEST)
r 10.003056331 _42_ RTR  --- 0 AODV 48 [0 ffffffff a 800] ------- [10:255 -1:255 29 0] [0x2 2 1 [1 0] [0 4]] (REQUEST)
r 10.003056331 _43_ RTR  --- 0 AODV 48 [0 ffffffff a 800] ------- [10:255 -1:255 29 0] [0x2 2 1 [1 0] [0 4]] (REQUEST)
r 10.003056331 _44_ RTR  --- 0 AODV 48 [0 ffffffff a 800] ------- [10:255 -1:255 29 0] [0x2 2 1 [1 0] [0 4]] (REQUEST)
r 10.003056331 _45_ RTR  --- 0 AODV 48 [0 ffffffff a 800] ------- [10:255 -1:255 29 0] [0x2 2 1 [1 0] [0 4]] (REQUEST)
r 10.003056331 _46_ RTR  --- 0 AODV 48 [0 ffffffff a 800] ------- [10:255 -1:255 29 0] [0x2 2 1 [1 0] [0 4]] (REQUEST)
r 10.003056331 _47_ RTR  --- 0 AODV 48 [0 ffffffff a 800] ------- [10:255 -1:255 29 0] [0x2 2 1 [1 0] [0 4]] (REQUEST)
r 10.003056331 _48_ RTR  --- 0 AODV 48 [0 ffffffff a 800] ------- [10:255 -1:255 29 0] [0x2 2 1 [1 0] [0 4]] (REQUEST)
r 10.003056331 _49_ RTR  --- 0 AODV 48 [0 ffffffff a 800] ------- [10:255 -1:255 29 0] [0x2 2 1 [1 0] [0 4]] (REQUEST)
r 10.003056349 _0_ RTR  --- 0 AODV 48 [0 ffffffff a 800] ------- [10:255 -1:255 29 0] [0x2 2 1 [1 0] [0 4]] (REQUEST)
r 10.003056465 _2_ RTR  --- 0 AODV 48 [0 ffffffff a 800] ------- [10:255 -1:255 29 0] [0x2 2 1 [1 0] [0 4]] (REQUEST)
r 10.003056885 _3_ RTR  --- 0 AODV 48 [0 ffffffff a 800] ------- [10:255 -1:255 29 0] [0x2 2 1 [1 0] [0 4]] (REQUEST)
s 10.003159613 _23_ RTR  --- 0 AODV 48 [0 ffffffff 0 800] ------- [23:255 -1:255 29 0] [0x2 2 1 [1 0] [0 4]] (REQUEST)
s 10.003334035 _44_ RTR  --- 0 AODV 48 [0 ffffffff 0 800] ------- [44:255 -1:255 29 0] [0x2 2 1 [1 0] [0 4]] (REQUEST)
s 10.003400274 _22_ RTR  --- 0 AODV 48 [0 ffffffff 0 800] ------- [22:255 -1:255 29 0] [0x2 2 1 [1 0] [0 4]] (REQUEST)
s 10.003558058 _2_ RTR  --- 0 AODV 48 [0 ffffffff 0 800] ------- [2:255 -1:255 29 0] [0x2 2 1 [1 0] [0 4]] (REQUEST)
s 10.003568897 _30_ RTR  --- 0 AODV 48 [0 ffffffff 0 800] ------- [30:255 -1:255 29 0] [0x2 2 1 [1 0] [0 4]] (REQUEST)
r 10.003974331 _33_ RTR  --- 0 AODV 48 [0 ffffffff 22 800] ------- [34:255 -1:255 29 0] [0x2 2 1 [1 0] [0 4]] (REQUEST)
r 10.003974331 _32_ RTR  --- 0 AODV 48 [0 ffffffff 22 800] ------- [34:255 -1:255 29 0] [0x2 2 1 [1 0] [0 4]] (REQUEST)
r 10.003974331 _31_ RTR  --- 0 AODV 48 [0 ffffffff 22 800] ------- [34:255 -1:255 29 0] [0x2 2 1 [1 0] [0 4]] (REQUEST)
r 10.003974331 _30_ RTR  --- 0 AODV 48 [0 ffffffff 22 800] ------- [34:255 -1:255 29 0] [0x2 2 1 [1 0] [0 4]] (REQUEST)
r 10.003974331 _29_ RTR  --- 0 AODV 48 [0 ffffffff 22 800] ------- [34:255 -1:255 29 0] [0x2 2 1 [1 0] [0 4]] (REQUEST)
r 10.003974331 _28_ RTR  --- 0 AODV 48 [0 ffffffff 22 800] ------- [34:255 -1:255 29 0] [0x2 2 1 [1 0] [0 4]] (REQUEST)
r 10.003974331 _27_ RTR  --- 0 AODV 48 [0 ffffffff 22 800] ------- [34:255 -1:255 29 0] [0x2 2 1 [1 0] [0 4]] (REQUEST)
r 10.003974331 _26_ RTR  --- 0 AODV 48 [0 ffffffff 22 800] ------- [34:255 -1:255 29 0] [0x2 2 1 [1 0] [0 4]] (REQUEST)
r 10.003974331 _25_ RTR  --- 0 AODV 48 [0 ffffffff 22 800] ------- [34:255 -1:255 29 0] [0x2 2 1 [1 0] [0 4]] (REQUEST)
r 10.003974331 _24_ RTR  --- 0 AODV 48 [0 ffffffff 22 800] ------- [34:255 -1:255 29 0] [0x2 2 1 [1 0] [0 4]] (REQUEST)
r 10.003974331 _23_ RTR  --- 0 AODV 48 [0 ffffffff 22 800] ------- [34:255 -1:255 29 0] [0x2 2 1 [1 0] [0 4]] (REQUEST)
r 10.003974331 _22_ RTR  --- 0 AODV 48 [0 ffffffff 22 800] ------- [34:255 -1:255 29 0] [0x2 2 1 [1 0] [0 4]] (REQUEST)
r 10.003974331 _21_ RTR  --- 0 AODV 48 [0 ffffffff 22 800] ------- [34:255 -1:255 29 0] [0x2 2 1 [1 0] [0 4]] (REQUEST)
r 10.003974331 _20_ RTR  --- 0 AODV 48 [0 ffffffff 22 800] ------- [34:255 -1:255 29 0] [0x2 2 1 [1 0] [0 4]] (REQUEST)
r 10.003974331 _19_ RTR  --- 0 AODV 48 [0 ffffffff 22 800] ------- [34:255 -1:255 29 0] [0x2 2 1 [1 0] [0 4]] (REQUEST)
r 10.003974331 _18_ RTR  --- 0 AODV 48 [0 ffffffff 22 800] ------- [34:255 -1:255 29 0] [0x2 2 1 [1 0] [0 4]] (REQUEST)
r 10.003974331 _17_ RTR  --- 0 AODV 48 [0 ffffffff 22 800] ------- [34:255 -1:255 29 0] [0x2 2 1 [1 0] [0 4]] (REQUEST)
r 10.003974331 _16_ RTR  --- 0 AODV 48 [0 ffffffff 22 800] ------- [34:255 -1:255 29 0] [0x2 2 1 [1 0] [0 4]] (REQUEST)
r 10.003974331 _15_ RTR  --- 0 AODV 48 [0 ffffffff 22 800] ------- [34:255 -1:255 29 0] [0x2 2 1 [1 0] [0 4]] (REQUEST)
r 10.003974331 _14_ RTR  --- 0 AODV 48 [0 ffffffff 22 800] ------- [34:255 -1:255 29 0] [0x2 2 1 [1 0] [0 4]] (REQUEST)
r 10.003974331 _13_ RTR  --- 0 AODV 48 [0 ffffffff 22 800] ------- [34:255 -1:255 29 0] [0x2 2 1 [1 0] [0 4]] (REQUEST)
r 10.003974331 _12_ RTR  --- 0 AODV 48 [0 ffffffff 22 800] ------- [34:255 -1:255 29 0] [0x2 2 1 [1 0] [0 4]] (REQUEST)
r 10.003974331 _11_ RTR  --- 0 AODV 48 [0 ffffffff 22 800] ------- [34:255 -1:255 29 0] [0x2 2 1 [1 0] [0 4]] (REQUEST)
r 10.003974331 _10_ RTR  --- 0 AODV 48 [0 ffffffff 22 800] ------- [34:255 -1:255 29 0] [0x2 2 1 [1 0] [0 4]] (REQUEST)
r 10.003974331 _9_ RTR  --- 0 AODV 48 [0 ffffffff 22 800] ------- [34:255 -1:255 29 0] [0x2 2 1 [1 0] [0 4]] (REQUEST)
r 10.003974331 _8_ RTR  --- 0 AODV 48 [0 ffffffff 22 800] ------- [34:255 -1:255 29 0] [0x2 2 1 [1 0] [0 4]] (REQUEST)
r 10.003974331 _7_ RTR  --- 0 AODV 48 [0 ffffffff 22 800] ------- [34:255 -1:255 29 0] [0x2 2 1 [1 0] [0 4]] (REQUEST)
r 10.003974331 _6_ RTR  --- 0 AODV 48 [0 ffffffff 22 800] ------- [34:255 -1:255 29 0] [0x2 2 1 [1 0] [0 4]] (REQUEST)
r 10.003974331 _5_ RTR  --- 0 AODV 48 [0 ffffffff 22 800] ------- [34:255 -1:255 29 0] [0x2 2 1 [1 0] [0 4]] (REQUEST)
r 10.003974331 _4_ RTR  --- 0 AODV 48 [0 ffffffff 22 800] ------- [34:255 -1:255 29 0] [0x2 2 1 [1 0] [0 4]] (REQUEST)
r 10.003974331 _35_ RTR  --- 0 AODV 48 [0 ffffffff 22 800] ------- [34:255 -1:255 29 0] [0x2 2 1 [1 0] [0 4]] (REQUEST)
r 10.003974331 _36_ RTR  --- 0 AODV 48 [0 ffffffff 22 800] ------- [34:255 -1:255 29 0] [0x2 2 1 [1 0] [0 4]] (REQUEST)
r 10.003974331 _37_ RTR  --- 0 AODV 48 [0 ffffffff 22 800] ------- [34:255 -1:255 29 0] [0x2 2 1 [1 0] [0 4]] (REQUEST)
r 10.003974331 _38_ RTR  --- 0 AODV 48 [0 ffffffff 22 800] ------- [34:255 -1:255 29 0] [0x2 2 1 [1 0] [0 4]] (REQUEST)
r 10.003974331 _39_ RTR  --- 0 AODV 48 [0 ffffffff 22 800] ------- [34:255 -1:255 29 0] [0x2 2 1 [1 0] [0 4]] (REQUEST)
r 10.003974331 _40_ RTR  --- 0 AODV 48 [0 ffffffff 22 800] ------- [34:255 -1:255 29 0] [0x2 2 1 [1 0] [0 4]] (REQUEST)
r 10.003974331 _41_ RTR  --- 0 AODV 48 [0 ffffffff 22 800] ------- [34:255 -1:255 29 0] [0x2 2 1 [1 0] [0 4]] (REQUEST)
r 10.003974331 _42_ RTR  --- 0 AODV 48 [0 ffffffff 22 800] ------- [34:255 -1:255 29 0] [0x2 2 1 [1 0] [0 4]] (REQUEST)
r 10.003974331 _43_ RTR  --- 0 AODV 48 [0 ffffffff 22 800] ------- [34:255 -1:255 29 0] [0x2 2 1 [1 0] [0 4]] (REQUEST)
r 10.003974331 _44_ RTR  --- 0 AODV 48 [0 ffffffff 22 800] ------- [34:255 -1:255 29 0] [0x2 2 1 [1 0] [0 4]] (REQUEST)
r 10.003974331 _45_ RTR  --- 0 AODV 48 [0 ffffffff 22 800] ------- [34:255 -1:255 29 0] [0x2 2 1 [1 0] [0 4]] (REQUEST)
r 10.003974331 _46_ RTR  --- 0 AODV 48 [0 ffffffff 22 800] ------- [34:255 -1:255 29 0] [0x2 2 1 [1 0] [0 4]] (REQUEST)
r 10.003974331 _47_ RTR  --- 0 AODV 48 [0 ffffffff 22 800] ------- [34:255 -1:255 29 0] [0x2 2 1 [1 0] [0 4]] (REQUEST)
r 10.003974331 _48_ RTR  --- 0 AODV 48 [0 ffffffff 22 800] ------- [34:255 -1:255 29 0] [0x2 2 1 [1 0] [0 4]] (REQUEST)
r 10.003974331 _49_ RTR  --- 0 AODV 48 [0 ffffffff 22 800] ------- [34:255 -1:255 29 0] [0x2 2 1 [1 0] [0 4]] (REQUEST)
r 10.003974349 _0_ RTR  --- 0 AODV 48 [0 ffffffff 22 800] ------- [34:255 -1:255 29 0] [0x2 2 1 [1 0] [0 4]] (REQUEST)
r 10.003974465 _2_ RTR  --- 0 AODV 48 [0 ffffffff 22 800] ------- [34:255 -1:255 29 0] [0x2 2 1 [1 0] [0 4]] (REQUEST)
r 10.003974885 _3_ RTR  --- 0 AODV 48 [0 ffffffff 22 800] ------- [34:255 -1:255 29 0] [0x2 2 1 [1 0] [0 4]] (REQUEST)
s 10.004078809 _42_ RTR  --- 0 AODV 48 [0 ffffffff 0 800] ------- [42:255 -1:255 29 0] [0x2 2 1 [1 0] [0 4]] (REQUEST)
s 10.004117636 _46_ RTR  --- 0 AODV 48 [0 ffffffff 0 800] ------- [46:255 -1:255 29 0] [0x2 2 1 [1 0] [0 4]] (REQUEST)
s 10.004344646 _6_ RTR  --- 0 AODV 48 [0 ffffffff 0 800] ------- [6:255 -1:255 29 0] [0x2 2 1 [1 0] [0 4]] (REQUEST)
s 10.004475428 _31_ RTR  --- 0 AODV 48 [0 ffffffff 0 800] ------- [31:255 -1:255 29 0] [0x2 2 1 [1 0] [0 4]] (REQUEST)
r 10.004912331 _21_ RTR  --- 0 AODV 48 [0 ffffffff 16 800] ------- [22:255 -1:255 29 0] [0x2 2 1 [1 0] [0 4]] (REQUEST)
r 10.004912331 _20_ RTR  --- 0 AODV 48 [0 ffffffff 16 800] ------- [22:255 -1:255 29 0] [0x2 2 1 [1 0] [0 4]] (REQUEST)
r 10.004912331 _19_ RTR  --- 0 AODV 48 [0 ffffffff 16 800] ------- [22:255 -1:255 29 0] [0x2 2 1 [1 0] [0 4]] (REQUEST)
r 10.004912331 _18_ RTR  --- 0 AODV 48 [0 ffffffff 16 800] ------- [22:255 -1:255 29 0] [0x2 2 1 [1 0] [0 4]] (REQUEST)
r 10.004912331 _17_ RTR  --- 0 AODV 48 [0 ffffffff 16 800] ------- [22:255 -1:255 29 0] [0x2 2 1 [1 0] [0 4]] (REQUEST)
r 10.004912331 _16_ RTR  --- 0 AODV 48 [0 ffffffff 16 800] ------- [22:255 -1:255 29 0] [0x2 2 1 [1 0] [0 4]] (REQUEST)
r 10.004912331 _15_ RTR  --- 0 AODV 48 [0 ffffffff 16 800] ------- [22:255 -1:255 29 0] [0x2 2 1 [1 0] [0 4]] (REQUEST)
r 10.004912331 _14_ RTR  --- 0 AODV 48 [0 ffffffff 16 800] ------- [22:255 -1:255 29 0] [0x2 2 1 [1 0] [0 4]] (REQUEST)
r 10.004912331 _13_ RTR  --- 0 AODV 48 [0 ffffffff 16 800] ------- [22:255 -1:255 29 0] [0x2 2 1 [1 0] [0 4]] (REQUEST)
r 10.004912331 _12_ RTR  --- 0 AODV 48 [0 ffffffff 16 800] ------- [22:255 -1:255 29 0] [0x2 2 1 [1 0] [0 4]] (REQUEST)
r 10.004912331 _11_ RTR  --- 0 AODV 48 [0 ffffffff 16 800] ------- [22:255 -1:255 29 0] [0x2 2 1 [1 0] [0 4]] (REQUEST)
r 10.004912331 _10_ RTR  --- 0 AODV 48 [0 ffffffff 16 800] ------- [22:255 -1:255 29 0] [0x2 2 1 [1 0] [0 4]] (REQUEST)
r 10.004912331 _9_ RTR  --- 0 AODV 48 [0 ffffffff 16 800] ------- [22:255 -1:255 29 0] [0x2 2 1 [1 0] [0 4]] (REQUEST)
r 10.004912331 _8_ RTR  --- 0 AODV 48 [0 ffffffff 16 800] ------- [22:255 -1:255 29 0] [0x2 2 1 [1 0] [0 4]] (REQUEST)
r 10.004912331 _7_ RTR  --- 0 AODV 48 [0 ffffffff 16 800] ------- [22:255 -1:255 29 0] [0x2 2 1 [1 0] [0 4]] (REQUEST)
r 10.004912331 _6_ RTR  --- 0 AODV 48 [0 ffffffff 16 800] ------- [22:255 -1:255 29 0] [0x2 2 1 [1 0] [0 4]] (REQUEST)
r 10.004912331 _5_ RTR  --- 0 AODV 48 [0 ffffffff 16 800] ------- [22:255 -1:255 29 0] [0x2 2 1 [1 0] [0 4]] (REQUEST)
r 10.004912331 _4_ RTR  --- 0 AODV 48 [0 ffffffff 16 800] ------- [22:255 -1:255 29 0] [0x2 2 1 [1 0] [0 4]] (REQUEST)
r 10.004912331 _23_ RTR  --- 0 AODV 48 [0 ffffffff 16 800] ------- [22:255 -1:255 29 0] [0x2 2 1 [1 0] [0 4]] (REQUEST)
r 10.004912331 _24_ RTR  --- 0 AODV 48 [0 ffffffff 16 800] ------- [22:255 -1:255 29 0] [0x2 2 1 [1 0] [0 4]] (REQUEST)
r 10.004912331 _25_ RTR  --- 0 AODV 48 [0 ffffffff 16 800] ------- [22:255 -1:255 29 0] [0x2 2 1 [1 0] [0 4]] (REQUEST)
r 10.004912331 _26_ RTR  --- 0 AODV 48 [0 ffffffff 16 800] ------- [22:255 -1:255 29 0] [0x2 2 1 [1 0] [0 4]] (REQUEST)
r 10.004912331 _27_ RTR  --- 0 AODV 48 [0 ffffffff 16 800] ------- [22:255 -1:255 29 0] [0x2 2 1 [1 0] [0 4]] (REQUEST)
r 10.004912331 _28_ RTR  --- 0 AODV 48 [0 ffffffff 16 800] ------- [22:255 -1:255 29 0] [0x2 2 1 [1 0] [0 4]] (REQUEST)
r 10.004912331 _29_ RTR  --- 0 AODV 48 [0 ffffffff 16 800] ------- [22:255 -1:255 29 0] [0x2 2 1 [1 0] [0 4]] (REQUEST)
r 10.004912331 _30_ RTR  --- 0 AODV 48 [0 ffffffff 16 800] ------- [22:255 -1:255 29 0] [0x2 2 1 [1 0] [0 4]] (REQUEST)
r 10.004912331 _31_ RTR  --- 0 AODV 48 [0 ffffffff 16 800] ------- [22:255 -1:255 29 0] [0x2 2 1 [1 0] [0 4]] (REQUEST)
r 10.004912331 _32_ RTR  --- 0 AODV 48 [0 ffffffff 16 800] ------- [22:255 -1:255 29 0] [0x2 2 1 [1 0] [0 4]] (REQUEST)
r 10.004912331 _33_ RTR  --- 0 AODV 48 [0 ffffffff 16 800] ------- [22:255 -1:255 29 0] [0x2 2 1 [1 0] [0 4]] (REQUEST)
r 10.004912331 _34_ RTR  --- 0 AODV 48 [0 ffffffff 16 800] ------- [22:255 -1:255 29 0] [0x2 2 1 [1 0] [0 4]] (REQUEST)
r 10.004912331 _35_ RTR  --- 0 AODV 48 [0 ffffffff 16 800] ------- [22:255 -1:255 29 0] [0x2 2 1 [1 0] [0 4]] (REQUEST)
r 10.004912331 _36_ RTR  --- 0 AODV 48 [0 ffffffff 16 800] ------- [22:255 -1:255 29 0] [0x2 2 1 [1 0] [0 4]] (REQUEST)
r 10.004912331 _37_ RTR  --- 0 AODV 48 [0 ffffffff 16 800] ------- [22:255 -1:255 29 0] [0x2 2 1 [1 0] [0 4]] (REQUEST)
r 10.004912331 _38_ RTR  --- 0 AODV 48 [0 ffffffff 16 800] ------- [22:255 -1:255 29 0] [0x2 2 1 [1 0] [0 4]] (REQUEST)
r 10.004912331 _39_ RTR  --- 0 AODV 48 [0 ffffffff 16 800] ------- [22:255 -1:255 29 0] [0x2 2 1 [1 0] [0 4]] (REQUEST)
r 10.004912331 _40_ RTR  --- 0 AODV 48 [0 ffffffff 16 800] ------- [22:255 -1:255 29 0] [0x2 2 1 [1 0] [0 4]] (REQUEST)